<LesHouchesEvents version="1.0">
<header>
<!--
#*********************************************************************
#                                                                    *
#                            MadGraph 5                              *
#                                                                    *
#                           Going Beyond                             *
#                                                                    *
#                   http://madgraph.hep.uiuc.edu                     *
#                   http://madgraph.phys.ucl.ac.be                   *
#                   http://madgraph.roma2.infn.it                    *
#                                                                    *
#                         The MadGraph team                          *
#                                                                    *
#....................................................................*
#                                                                    *
# This file contains all the information necessary to reproduce      *
# the events generated:                                              *
#                                                                    *
# 1. software version                                                *
# 2. proc_card          : code generation info including model       *
# 3. param_card         : model primary parameters in the LH format  *
# 4. run_card           : running parameters (collider and cuts)     *
# 5. pythia_card        : present only if pythia has been run        *
# 6. pgs_card           : present only if pgs has been run           *
# 7. delphes_cards      : present only if delphes has been run       *
#                                                                    *
#                                                                    *
#*********************************************************************
-->
<MGVersion>
# MG    version    : 5.1.3.20
</MGVersion>
<MG5ProcCard>
#************************************************************
#*                        MadGraph 5                        *
#*                                                          *
#*                *                       *                 *
#*                  *        * *        *                   *
#*                    * * * * 5 * * * *                     *
#*                  *        * *        *                   *
#*                *                       *                 *
#*                                                          *
#*                                                          *
#*         VERSION 1.3.20                2011-10-09         *
#*                                                          *
#*    The MadGraph Development Team - Please visit us at    *
#*    https://server06.fynu.ucl.ac.be/projects/madgraph     *
#*                                                          *
#************************************************************
#*                                                          *
#*               Command File for MadGraph 5                *
#*                                                          *
#*     run as ./bin/mg5  filename                           *
#*                                                          *
#************************************************************
import model sm
generate p  p > e- ve~
output ex_01
</MG5ProcCard>
<MGProcCard>
#*********************************************************************
#                        MadGraph/MadEvent                           *
#                   http://madgraph.hep.uiuc.edu                     *
#                                                                    *
#                          proc_card.dat                             *
#*********************************************************************
#                                                                    *
#            This Files is generated by MADGRAPH 5                   *
#                                                                    *
# WARNING: This Files is generated for MADEVENT (compatibility issue)*
#          This files is NOT a valid MG4 proc_card.dat               *
#          Running this in MG4 will NEVER reproduce the result of MG5*
#                                                                    *
#*********************************************************************
#*********************************************************************
# Process(es) requested : mg2 input                                  *
#*********************************************************************
# Begin PROCESS # This is TAG. Do not modify this line
p p > e- ve~           #Process
# Be carefull the coupling are here in MG5 convention
end_coup           # End the couplings input
done               # this tells MG there are no more procs
# End PROCESS  # This is TAG. Do not modify this line
#*********************************************************************
# Model information                                                  *
#*********************************************************************
# Begin MODEL  # This is TAG. Do not modify this line
sm
# End   MODEL  # This is TAG. Do not modify this line
#*********************************************************************
# Start multiparticle definitions                                    *
#*********************************************************************
# Begin MULTIPARTICLES # This is TAG. Do not modify this line
# End  MULTIPARTICLES # This is TAG. Do not modify this line
</MGProcCard>
<slha>
######################################################################
## PARAM_CARD AUTOMATICALY GENERATED BY MG5 FOLLOWING UFO MODEL   ####
######################################################################
###################################
## INFORMATION FOR MASS
###################################
Block mass 
    5 4.700000e+00 # MB 
    6 1.730000e+02 # MT 
   15 1.777000e+00 # MTA 
   23 9.118800e+01 # MZ 
   25 1.200000e+02 # MH 
##  Not dependent paramater.
## Those values should be edited following the 
## analytical expression. MG5 ignore those values 
## but they are important for interfacing the output of MG5
## to external program such as Pythia.
  12 0.000000 # ve : 0.0 
  14 0.000000 # vm : 0.0 
  16 0.000000 # vt : 0.0 
  2 0.000000 # u : 0.0 
  4 0.000000 # c : 0.0 
  1 0.000000 # d : 0.0 
  3 0.000000 # s : 0.0 
  22 0.000000 # a : 0.0 
  24 80.419002 # w+ : cmath.sqrt(MZ__exp__2/2. + cmath.sqrt(MZ__exp__4/4. - (aEW*cmath.pi*MZ__exp__2)/(Gf*sqrt__2))) 
  21 0.000000 # g : 0.0 
  11 0.000000 # e- : 0.0 
  13 0.000000 # mu- : 0.0 
###################################
## INFORMATION FOR SMINPUTS
###################################
Block sminputs 
    1 1.325070e+02 # aEWM1 
    2 1.166390e-05 # Gf 
    3 1.180000e-01 # aS 
###################################
## INFORMATION FOR YUKAWA
###################################
Block yukawa 
    5 4.200000e+00 # ymb 
    6 1.645000e+02 # ymt 
   15 1.777000e+00 # ymtau 
###################################
## INFORMATION FOR DECAY
###################################
DECAY   6 1.491500e+00 # WT 
DECAY  23 2.441404e+00 # WZ 
DECAY  24 2.047600e+00 # WW 
DECAY  25 5.753088e-03 # WH 
##  Not dependent paramater.
## Those values should be edited following the 
## analytical expression. MG5 ignore those values 
## but they are important for interfacing the output of MG5
## to external program such as Pythia.
DECAY  12 0.000000 # ve : 0.0 
DECAY  14 0.000000 # vm : 0.0 
DECAY  16 0.000000 # vt : 0.0 
DECAY  2 0.000000 # u : 0.0 
DECAY  4 0.000000 # c : 0.0 
DECAY  1 0.000000 # d : 0.0 
DECAY  3 0.000000 # s : 0.0 
DECAY  5 0.000000 # b : 0.0 
DECAY  22 0.000000 # a : 0.0 
DECAY  21 0.000000 # g : 0.0 
DECAY  11 0.000000 # e- : 0.0 
DECAY  13 0.000000 # mu- : 0.0 
DECAY  15 0.000000 # ta- : 0.0 
</slha>
<MGRunCard>
#*********************************************************************
#                       MadGraph/MadEvent                            *
#                  http://madgraph.hep.uiuc.edu                      *
#                                                                    *
#                        run_card.dat                                *
#                                                                    *
#  This file is used to set the parameters of the run.               *
#                                                                    *
#  Some notation/conventions:                                        *
#                                                                    *
#   Lines starting with a '# ' are info or comments                  *
#                                                                    *
#   mind the format:   value    = variable     ! comment             *
#*********************************************************************
#
#*******************                                                 
# Running parameters
#*******************                                                 
#                                                                    
#*********************************************************************
# Tag name for the run (one word)                                    *
#*********************************************************************
  'fermi'     = run_tag ! name of the run 
#*********************************************************************
# Run to generate the grid pack                                      *
#*********************************************************************
  .false.     = gridpack  !True = setting up the grid pack
#*********************************************************************
# Number of events and rnd seed                                      *
# Warning: Do not generate more than 100K event in a single run      *
#*********************************************************************
  1000        = nevents ! Number of unweighted events requested 
      23 = iseed   ! rnd seed (0=assigned automatically=default))
#*********************************************************************
# Collider type and energy                                           *
#*********************************************************************
        1     = lpp1  ! beam 1 type (0=NO PDF)
        1     = lpp2  ! beam 2 type (0=NO PDF)
     4000     = ebeam1  ! beam 1 energy in GeV
     4000     = ebeam2  ! beam 2 energy in GeV
#*********************************************************************
# Beam polarization from -100 (left-handed) to 100 (right-handed)    *
#*********************************************************************
        0     = polbeam1 ! beam polarization for beam 1
        0     = polbeam2 ! beam polarization for beam 2
#*********************************************************************
# PDF CHOICE: this automatically fixes also alpha_s and its evol.    *
#*********************************************************************
 'cteq6l1'    = pdlabel     ! PDF set                                     
#*********************************************************************
# Renormalization and factorization scales                           *
#*********************************************************************
 F        = fixed_ren_scale  ! if .true. use fixed ren scale
 F        = fixed_fac_scale  ! if .true. use fixed fac scale
 91.1880  = scale            ! fixed ren scale
 91.1880  = dsqrt_q2fact1    ! fixed fact scale for pdf1
 91.1880  = dsqrt_q2fact2    ! fixed fact scale for pdf2
 1        = scalefact        ! scale factor for event-by-event scales
#*********************************************************************
# Matching - Warning! ickkw > 1 is still beta
#*********************************************************************
 0        = ickkw            ! 0 no matching, 1 MLM, 2 CKKW matching
 1        = highestmult      ! for ickkw=2, highest mult group
 1        = ktscheme         ! for ickkw=1, 1 Durham kT, 2 Pythia pTE
 1        = alpsfact         ! scale factor for QCD emission vx
 F        = chcluster        ! cluster only according to channel diag
 T        = pdfwgt           ! for ickkw=1, perform pdf reweighting
#*********************************************************************
# Automatic ptj and mjj cuts if xqcut > 0
# (turn off for VBF and single top processes)
#**********************************************************
   T  = auto_ptj_mjj
#**********************************************************
#                                                                    
#**********************************
# BW cutoff (M+/-bwcutoff*Gamma)
#**********************************
  15  = bwcutoff
#**********************************************************
# Apply pt/E/eta/dr/mij cuts on decay products or not
# (note that etmiss/ptll/ptheavy/sorted cuts always apply)
#**********************************************************
   T  = cut_decays
#*************************************************************
# Number of helicities to sum per event (0 = all helicities)
# 0 gives more stable result, but longer run time (needed for
# long decay chains e.g.).
# Use >=2 if most helicities contribute, e.g. pure QCD.
#*************************************************************
   0  = nhel
#*******************                                                 
# Standard Cuts
#*******************                                                 
#                                                                    
#*********************************************************************
# Minimum and maximum pt's                                           *
#*********************************************************************
 20  = ptj       ! minimum pt for the jets 
  0  = ptb       ! minimum pt for the b 
 10  = pta       ! minimum pt for the photons 
 10  = ptl       ! minimum pt for the charged leptons 
  0  = misset    ! minimum missing Et (sum of neutrino's momenta)
  0  = ptheavy   ! minimum pt for one heavy final state
 1.0 = ptonium   ! minimum pt for the quarkonium states
 1d5 = ptjmax    ! maximum pt for the jets
 1d5 = ptbmax    ! maximum pt for the b
 1d5 = ptamax    ! maximum pt for the photons
 1d5 = ptlmax    ! maximum pt for the charged leptons
 1d5 = missetmax ! maximum missing Et (sum of neutrino's momenta)
#*********************************************************************
# Minimum and maximum E's (in the lab frame)                         *
#*********************************************************************
  0  = ej     ! minimum E for the jets 
  0  = eb     ! minimum E for the b 
  0  = ea     ! minimum E for the photons 
  0  = el     ! minimum E for the charged leptons 
 1d5  = ejmax ! maximum E for the jets
 1d5  = ebmax ! maximum E for the b
 1d5  = eamax ! maximum E for the photons
 1d5  = elmax ! maximum E for the charged leptons
#*********************************************************************
# Maximum and minimum rapidity                                       *
#*********************************************************************
   5  = etaj    ! max rap for the jets 
 1d2  = etab    ! max rap for the b 
 2.5  = etaa    ! max rap for the photons 
 2.5  = etal    ! max rap for the charged leptons 
 0.6  = etaonium ! max rap for the quarkonium states
 0d0  = etajmin ! min rap for the jets
 0d0  = etabmin ! min rap for the b
 0d0  = etaamin ! min rap for the photons
 0d0  = etalmin ! main rap for the charged leptons
#*********************************************************************
# Minimum and maximum DeltaR distance                                *
#*********************************************************************
 0.4 = drjj    ! min distance between jets 
 0   = drbb    ! min distance between b's 
 0.4 = drll    ! min distance between leptons 
 0.4 = draa    ! min distance between gammas 
 0   = drbj    ! min distance between b and jet 
 0.4 = draj    ! min distance between gamma and jet 
 0.4 = drjl    ! min distance between jet and lepton 
 0   = drab    ! min distance between gamma and b 
 0   = drbl    ! min distance between b and lepton 
 0.4 = dral    ! min distance between gamma and lepton 
 1d2 = drjjmax ! max distance between jets
 1d2 = drbbmax ! max distance between b's
 1d2 = drllmax ! max distance between leptons
 1d2 = draamax ! max distance between gammas
 1d2 = drbjmax ! max distance between b and jet
 1d2 = drajmax ! max distance between gamma and jet
 1d2 = drjlmax ! max distance between jet and lepton
 1d2 = drabmax ! max distance between gamma and b
 1d2 = drblmax ! max distance between b and lepton
 1d2 = dralmax ! maxdistance between gamma and lepton
#*********************************************************************
# Minimum and maximum invariant mass for pairs                       *
#*********************************************************************
 0   = mmjj    ! min invariant mass of a jet pair 
 0   = mmbb    ! min invariant mass of a b pair 
 0   = mmaa    ! min invariant mass of gamma gamma pair
 0   = mmll    ! min invariant mass of l+l- (same flavour) lepton pair
 1d5 = mmjjmax ! max invariant mass of a jet pair
 1d5 = mmbbmax ! max invariant mass of a b pair
 1d5 = mmaamax ! max invariant mass of gamma gamma pair
 1d5 = mmllmax ! max invariant mass of l+l- (same flavour) lepton pair
#*********************************************************************
# Minimum and maximum invariant mass for all letpons                 *
#*********************************************************************
 0   = mmnl    ! min invariant mass for all letpons (l+- and vl) 
 1d5 = mmnlmax ! max invariant mass for all letpons (l+- and vl) 
#*********************************************************************
# Minimum and maximum pt for 4-momenta sum of leptons                *
#*********************************************************************
 0   = ptllmin  ! Minimum pt for 4-momenta sum of leptons(l and vl)
 1d5 = ptllmax  ! Maximum pt for 4-momenta sum of leptons(l and vl)
#*********************************************************************
# Inclusive cuts                                                     *
#*********************************************************************
 0  = xptj ! minimum pt for at least one jet  
 0  = xptb ! minimum pt for at least one b 
 0  = xpta ! minimum pt for at least one photon 
 0  = xptl ! minimum pt for at least one charged lepton 
#*********************************************************************
# Control the pt's of the jets sorted by pt                          *
#*********************************************************************
 0   = ptj1min ! minimum pt for the leading jet in pt
 0   = ptj2min ! minimum pt for the second jet in pt
 0   = ptj3min ! minimum pt for the third jet in pt
 0   = ptj4min ! minimum pt for the fourth jet in pt
 1d5 = ptj1max ! maximum pt for the leading jet in pt 
 1d5 = ptj2max ! maximum pt for the second jet in pt
 1d5 = ptj3max ! maximum pt for the third jet in pt
 1d5 = ptj4max ! maximum pt for the fourth jet in pt
 0   = cutuse  ! reject event if fails any (0) / all (1) jet pt cuts
#*********************************************************************
# Control the Ht(k)=Sum of k leading jets                            *
#*********************************************************************
 0   = htjmin ! minimum jet HT=Sum(jet pt)
 1d5 = htjmax ! maximum jet HT=Sum(jet pt)
 0   = ihtmin  !inclusive Ht for all partons (including b)
 1d5 = ihtmax  !inclusive Ht for all partons (including b)
 0   = ht2min ! minimum Ht for the two leading jets
 0   = ht3min ! minimum Ht for the three leading jets
 0   = ht4min ! minimum Ht for the four leading jets
 1d5 = ht2max ! maximum Ht for the two leading jets
 1d5 = ht3max ! maximum Ht for the three leading jets
 1d5 = ht4max ! maximum Ht for the four leading jets
#*********************************************************************
# WBF cuts                                                           *
#*********************************************************************
 0   = xetamin ! minimum rapidity for two jets in the WBF case  
 0   = deltaeta ! minimum rapidity for two jets in the WBF case 
#*********************************************************************
# maximal pdg code for quark to be considered as a light jet         *
# (otherwise b cuts are applied)                                     *
#*********************************************************************
 4 = maxjetflavor
#*********************************************************************
# Jet measure cuts                                                   *
#*********************************************************************
 0   = xqcut   ! minimum kt jet measure between partons
#*********************************************************************
</MGRunCard>
<MGGenerationInfo>
#  Number of Events        :        1000
#  Integrated weight (pb)  :  .24138E+04
#  Truncated wgt (pb)      :  .00000E+00
#  Unit wgt                :  .24138E+01
</MGGenerationInfo>
</header>
<init>
     2212     2212  0.40000000000E+04  0.40000000000E+04 0 0 10042 10042 3  1
  0.24138000000E+04  0.12841000000E+02  0.24138000000E+01   0
</init>
<event>
 5   0  0.2413800E+01  0.8185833E+02  0.7957747E-01  0.1322645E+00
        1   -1    0    0  501    0  0.00000000000E+00  0.00000000000E+00  0.42011820558E+02  0.42011820558E+02  0.00000000000E+00 0. -1.
       -2   -1    0    0    0  501  0.00000000000E+00  0.00000000000E+00 -0.39874414435E+02  0.39874414435E+02  0.00000000000E+00 0.  1.
      -24    2    1    2    0    0  0.00000000000E+00  0.00000000000E+00  0.21374061236E+01  0.81886234993E+02  0.81858334801E+02 0.  0.
       11    1    3    3    0    0  0.46652658004E+01  0.24977695331E+02  0.33166190595E+02  0.41780930670E+02  0.00000000000E+00 0. -1.
      -12    1    3    3    0    0 -0.46652658004E+01 -0.24977695331E+02 -0.31028784472E+02  0.40105304323E+02  0.00000000000E+00 0.  1.
</event>
<event>
 5   0  0.2413800E+01  0.8128476E+02  0.7957747E-01  0.1324147E+00
       -2   -1    0    0    0  501  0.00000000000E+00  0.00000000000E+00  0.63724631722E+02  0.63724631722E+02  0.00000000000E+00 0.  1.
        1   -1    0    0  501    0  0.00000000000E+00  0.00000000000E+00 -0.25920952454E+02  0.25920952454E+02  0.00000000000E+00 0. -1.
      -24    2    1    2    0    0  0.00000000000E+00  0.00000000000E+00  0.37803679268E+02  0.89645584175E+02  0.81284762385E+02 0.  0.
       11    1    3    3    0    0  0.10410119263E+02  0.28212252752E+02 -0.11250828990E+02  0.32107365843E+02  0.00000000000E+00 0. -1.
      -12    1    3    3    0    0 -0.10410119263E+02 -0.28212252752E+02  0.49054508258E+02  0.57538218332E+02  0.00000000000E+00 0.  1.
</event>
<event>
 5   0  0.2413800E+01  0.7987569E+02  0.7957747E-01  0.1327899E+00
        1   -1    0    0  501    0  0.00000000000E+00  0.00000000000E+00  0.12592056694E+03  0.12592056694E+03  0.00000000000E+00 0. -1.
       -2   -1    0    0    0  501  0.00000000000E+00  0.00000000000E+00 -0.12666966328E+02  0.12666966328E+02  0.00000000000E+00 0.  1.
      -24    2    1    2    0    0  0.00000000000E+00  0.00000000000E+00  0.11325360061E+03  0.13858753326E+03  0.79875692957E+02 0.  0.
       11    1    3    3    0    0 -0.16653382536E+02 -0.35769016309E+02  0.67360783371E+02  0.78065567404E+02  0.00000000000E+00 0. -1.
      -12    1    3    3    0    0  0.16653382536E+02  0.35769016309E+02  0.45892817236E+02  0.60521965860E+02  0.00000000000E+00 0.  1.
</event>
<event>
 5   0  0.2413800E+01  0.7052702E+02  0.7957747E-01  0.1355232E+00
        1   -1    0    0  501    0  0.00000000000E+00  0.00000000000E+00  0.13927583678E+02  0.13927583678E+02  0.00000000000E+00 0. -1.
       -2   -1    0    0    0  501  0.00000000000E+00  0.00000000000E+00 -0.89284350367E+02  0.89284350367E+02  0.00000000000E+00 0.  1.
      -24    2    1    2    0    0  0.00000000000E+00  0.00000000000E+00 -0.75356766688E+02  0.10321193405E+03  0.70527023499E+02 0.  0.
       11    1    3    3    0    0 -0.32939782812E+01 -0.13834292373E+02  0.95450507555E+01  0.17127344579E+02  0.00000000000E+00 0. -1.
      -12    1    3    3    0    0  0.32939782812E+01  0.13834292373E+02 -0.84901817444E+02  0.86084589467E+02  0.00000000000E+00 0.  1.
</event>
<event>
 5   0  0.2413800E+01  0.8034161E+02  0.7957747E-01  0.1326649E+00
       -4   -1    0    0    0  501  0.00000000000E+00  0.00000000000E+00  0.39509949067E+02  0.39509949067E+02  0.00000000000E+00 0.  1.
        3   -1    0    0  501    0  0.00000000000E+00  0.00000000000E+00 -0.40842718353E+02  0.40842718353E+02  0.00000000000E+00 0. -1.
      -24    2    1    2    0    0  0.00000000000E+00  0.00000000000E+00 -0.13327692859E+01  0.80352667419E+02  0.80341613672E+02 0.  0.
       11    1    3    3    0    0 -0.35217082532E+02  0.19160587651E+02  0.18484594053E+01  0.40134621256E+02  0.00000000000E+00 0. -1.
      -12    1    3    3    0    0  0.35217082532E+02 -0.19160587651E+02 -0.31812286912E+01  0.40218046163E+02  0.00000000000E+00 0.  1.
</event>
<event>
 5   0  0.2413800E+01  0.8139565E+02  0.7957747E-01  0.1323856E+00
       -2   -1    0    0    0  501  0.00000000000E+00  0.00000000000E+00  0.31500111999E+02  0.31500111999E+02  0.00000000000E+00 0.  1.
        1   -1    0    0  501    0  0.00000000000E+00  0.00000000000E+00 -0.52581180106E+02  0.52581180106E+02  0.00000000000E+00 0. -1.
      -24    2    1    2    0    0  0.00000000000E+00  0.00000000000E+00 -0.21081068106E+02  0.84081292105E+02  0.81395652523E+02 0.  0.
       11    1    3    3    0    0 -0.27248605125E+02 -0.12880446465E+02 -0.38791021043E+02  0.49123677549E+02  0.00000000000E+00 0. -1.
      -12    1    3    3    0    0  0.27248605125E+02  0.12880446465E+02  0.17709952936E+02  0.34957614556E+02  0.00000000000E+00 0.  1.
</event>
<event>
 5   0  0.2413800E+01  0.8033984E+02  0.7957747E-01  0.1326654E+00
       -2   -1    0    0    0  501  0.00000000000E+00  0.00000000000E+00  0.79896111230E+01  0.79896111230E+01  0.00000000000E+00 0.  1.
        1   -1    0    0  501    0  0.00000000000E+00  0.00000000000E+00 -0.20196509354E+03  0.20196509354E+03  0.00000000000E+00 0. -1.
      -24    2    1    2    0    0  0.00000000000E+00  0.00000000000E+00 -0.19397548241E+03  0.20995470466E+03  0.80339842115E+02 0.  0.
       11    1    3    3    0    0 -0.31265091308E+02  0.24876930087E+02 -0.86132192613E+02  0.94947997290E+02  0.00000000000E+00 0. -1.
      -12    1    3    3    0    0  0.31265091308E+02 -0.24876930087E+02 -0.10784328980E+03  0.11500670737E+03  0.00000000000E+00 0.  1.
</event>
<event>
 5   0  0.2413800E+01  0.8006582E+02  0.7957747E-01  0.1327388E+00
        3   -1    0    0  501    0  0.00000000000E+00  0.00000000000E+00  0.23721864678E+03  0.23721864678E+03  0.00000000000E+00 0. -1.
       -4   -1    0    0    0  501  0.00000000000E+00  0.00000000000E+00 -0.67559353759E+01  0.67559353759E+01  0.00000000000E+00 0.  1.
      -24    2    1    2    0    0  0.00000000000E+00  0.00000000000E+00  0.23046271140E+03  0.24397458215E+03  0.80065819114E+02 0.  0.
       11    1    3    3    0    0 -0.35729971316E+02 -0.12779422889E+02  0.15409799511E+03  0.15870140704E+03  0.00000000000E+00 0. -1.
      -12    1    3    3    0    0  0.35729971316E+02  0.12779422889E+02  0.76364716295E+02  0.85273175116E+02  0.00000000000E+00 0.  1.
</event>
<event>
 5   0  0.2413800E+01  0.8007532E+02  0.7957747E-01  0.1327362E+00
        1   -1    0    0  501    0  0.00000000000E+00  0.00000000000E+00  0.16036409440E+03  0.16036409440E+03  0.00000000000E+00 0. -1.
       -2   -1    0    0    0  501  0.00000000000E+00  0.00000000000E+00 -0.99960910521E+01  0.99960910521E+01  0.00000000000E+00 0.  1.
      -24    2    1    2    0    0  0.00000000000E+00  0.00000000000E+00  0.15036800335E+03  0.17036018545E+03  0.80075316774E+02 0.  0.
       11    1    3    3    0    0 -0.29700182830E+02  0.11747601456E+02  0.12654921632E+03  0.13051747451E+03  0.00000000000E+00 0. -1.
      -12    1    3    3    0    0  0.29700182830E+02 -0.11747601456E+02  0.23818787029E+02  0.39842710948E+02  0.00000000000E+00 0.  1.
</event>
<event>
 5   0  0.2413800E+01  0.8058358E+02  0.7957747E-01  0.1326004E+00
       -2   -1    0    0    0  501  0.00000000000E+00  0.00000000000E+00  0.12418451901E+03  0.12418451901E+03  0.00000000000E+00 0.  1.
        1   -1    0    0  501    0  0.00000000000E+00  0.00000000000E+00 -0.13072710470E+02  0.13072710470E+02  0.00000000000E+00 0. -1.
      -24    2    1    2    0    0  0.00000000000E+00  0.00000000000E+00  0.11111180854E+03  0.13725722948E+03  0.80583578026E+02 0.  0.
       11    1    3    3    0    0  0.19523175769E+02  0.34118360399E+02  0.40492484365E+02  0.56434547915E+02  0.00000000000E+00 0. -1.
      -12    1    3    3    0    0 -0.19523175769E+02 -0.34118360399E+02  0.70619324173E+02  0.80822681563E+02  0.00000000000E+00 0.  1.
</event>
<event>
 5   0  0.2413800E+01  0.8454686E+02  0.7957747E-01  0.1315783E+00
       -2   -1    0    0    0  501  0.00000000000E+00  0.00000000000E+00  0.90564621714E+01  0.90564621714E+01  0.00000000000E+00 0.  1.
        1   -1    0    0  501    0  0.00000000000E+00  0.00000000000E+00 -0.19732240783E+03  0.19732240783E+03  0.00000000000E+00 0. -1.
      -24    2    1    2    0    0  0.00000000000E+00  0.00000000000E+00 -0.18826594566E+03  0.20637887000E+03  0.84546860901E+02 0.  0.
       11    1    3    3    0    0  0.18642934994E+02  0.34718031740E+02 -0.13148443102E+03  0.13726272748E+03  0.00000000000E+00 0. -1.
      -12    1    3    3    0    0 -0.18642934994E+02 -0.34718031740E+02 -0.56781514633E+02  0.69116142522E+02  0.00000000000E+00 0.  1.
</event>
<event>
 5   0  0.2413800E+01  0.7908013E+02  0.7957747E-01  0.1330057E+00
       -2   -1    0    0    0  501  0.00000000000E+00  0.00000000000E+00  0.43365510881E+02  0.43365510881E+02  0.00000000000E+00 0.  1.
        1   -1    0    0  501    0  0.00000000000E+00  0.00000000000E+00 -0.36052078737E+02  0.36052078737E+02  0.00000000000E+00 0. -1.
      -24    2    1    2    0    0  0.00000000000E+00  0.00000000000E+00  0.73134321445E+01  0.79417589618E+02  0.79080131835E+02 0.  0.
       11    1    3    3    0    0 -0.26503712603E+02 -0.27317309116E+02  0.14413851138E+02  0.40699401270E+02  0.00000000000E+00 0. -1.
      -12    1    3    3    0    0  0.26503712603E+02  0.27317309116E+02 -0.71004189939E+01  0.38718188348E+02  0.00000000000E+00 0.  1.
</event>
<event>
 5   0  0.2413800E+01  0.7929346E+02  0.7957747E-01  0.1329475E+00
        1   -1    0    0  501    0  0.00000000000E+00  0.00000000000E+00  0.44482187928E+01  0.44482187928E+01  0.00000000000E+00 0. -1.
       -2   -1    0    0    0  501  0.00000000000E+00  0.00000000000E+00 -0.35336910595E+03  0.35336910595E+03  0.00000000000E+00 0.  1.
      -24    2    1    2    0    0  0.00000000000E+00  0.00000000000E+00 -0.34892088716E+03  0.35781732475E+03  0.79293457432E+02 0.  0.
       11    1    3    3    0    0  0.17525102880E+02 -0.86046146668E+01 -0.18747692239E+02  0.27067408239E+02  0.00000000000E+00 0. -1.
      -12    1    3    3    0    0 -0.17525102880E+02  0.86046146668E+01 -0.33017319492E+03  0.33074991651E+03  0.00000000000E+00 0.  1.
</event>
<event>
 5   0  0.2413800E+01  0.8101956E+02  0.7957747E-01  0.1324847E+00
       -2   -1    0    0    0  501  0.00000000000E+00  0.00000000000E+00  0.62250211392E+01  0.62250211392E+01  0.00000000000E+00 0.  1.
        1   -1    0    0  501    0  0.00000000000E+00  0.00000000000E+00 -0.26362033650E+03  0.26362033650E+03  0.00000000000E+00 0. -1.
      -24    2    1    2    0    0  0.00000000000E+00  0.00000000000E+00 -0.25739531536E+03  0.26984535764E+03  0.81019557329E+02 0.  0.
       11    1    3    3    0    0  0.30564464675E+02  0.20590882532E+02 -0.72680706335E+02  0.81490220380E+02  0.00000000000E+00 0. -1.
      -12    1    3    3    0    0 -0.30564464675E+02 -0.20590882532E+02 -0.18471460903E+03  0.18835513726E+03  0.00000000000E+00 0.  1.
</event>
<event>
 5   0  0.2413800E+01  0.8168357E+02  0.7957747E-01  0.1323101E+00
       -4   -1    0    0    0  501  0.00000000000E+00  0.00000000000E+00  0.13183415014E+03  0.13183415014E+03  0.00000000000E+00 0.  1.
        3   -1    0    0  501    0  0.00000000000E+00  0.00000000000E+00 -0.12652651716E+02  0.12652651716E+02  0.00000000000E+00 0. -1.
      -24    2    1    2    0    0  0.00000000000E+00  0.00000000000E+00  0.11918149843E+03  0.14448680186E+03  0.81683574507E+02 0.  0.
       11    1    3    3    0    0 -0.11595962982E+02  0.13992038733E+02 -0.51071756647E+01  0.18876619100E+02  0.00000000000E+00 0. -1.
      -12    1    3    3    0    0  0.11595962982E+02 -0.13992038733E+02  0.12428867409E+03  0.12561018276E+03  0.00000000000E+00 0.  1.
</event>
<event>
 5   0  0.2413800E+01  0.7973810E+02  0.7957747E-01  0.1328270E+00
        1   -1    0    0  501    0  0.00000000000E+00  0.00000000000E+00  0.76415315575E+01  0.76415315575E+01  0.00000000000E+00 0. -1.
       -2   -1    0    0    0  501  0.00000000000E+00  0.00000000000E+00 -0.20801343163E+03  0.20801343163E+03  0.00000000000E+00 0.  1.
      -24    2    1    2    0    0  0.00000000000E+00  0.00000000000E+00 -0.20037190007E+03  0.21565496319E+03  0.79738101361E+02 0.  0.
       11    1    3    3    0    0  0.21601017678E+02  0.40060340971E+01 -0.10206032902E+02  0.24224272569E+02  0.00000000000E+00 0. -1.
      -12    1    3    3    0    0 -0.21601017678E+02 -0.40060340971E+01 -0.19016586717E+03  0.19143069062E+03  0.00000000000E+00 0.  1.
</event>
<event>
 5   0  0.2413800E+01  0.7434536E+02  0.7957747E-01  0.1343519E+00
        1   -1    0    0  501    0  0.00000000000E+00  0.00000000000E+00  0.17244794509E+03  0.17244794509E+03  0.00000000000E+00 0. -1.
       -2   -1    0    0    0  501  0.00000000000E+00  0.00000000000E+00 -0.80129006334E+01  0.80129006334E+01  0.00000000000E+00 0.  1.
      -24    2    1    2    0    0  0.00000000000E+00  0.00000000000E+00  0.16443504445E+03  0.18046084572E+03  0.74345362960E+02 0.  0.
       11    1    3    3    0    0 -0.14103971958E+02  0.22106926379E+02  0.14617068570E+03  0.14850423420E+03  0.00000000000E+00 0. -1.
      -12    1    3    3    0    0  0.14103971958E+02 -0.22106926379E+02  0.18264358756E+02  0.31956611518E+02  0.00000000000E+00 0.  1.
</event>
<event>
 5   0  0.2413800E+01  0.8052897E+02  0.7957747E-01  0.1326149E+00
       -2   -1    0    0    0  501  0.00000000000E+00  0.00000000000E+00  0.51949242456E+03  0.51949242456E+03  0.00000000000E+00 0.  1.
        1   -1    0    0  501    0  0.00000000000E+00  0.00000000000E+00 -0.31207939880E+01  0.31207939880E+01  0.00000000000E+00 0. -1.
      -24    2    1    2    0    0  0.00000000000E+00  0.00000000000E+00  0.51637163057E+03  0.52261321855E+03  0.80528972063E+02 0.  0.
       11    1    3    3    0    0 -0.14266448976E+02 -0.23264367929E+02  0.66055505063E+02  0.71470918076E+02  0.00000000000E+00 0. -1.
      -12    1    3    3    0    0  0.14266448976E+02  0.23264367929E+02  0.45031612551E+03  0.45114230047E+03  0.00000000000E+00 0.  1.
</event>
<event>
 5   0  0.2413800E+01  0.7160872E+02  0.7957747E-01  0.1351830E+00
        1   -1    0    0  501    0  0.00000000000E+00  0.00000000000E+00  0.77287874252E+02  0.77287874252E+02  0.00000000000E+00 0. -1.
       -2   -1    0    0    0  501  0.00000000000E+00  0.00000000000E+00 -0.16586719210E+02  0.16586719210E+02  0.00000000000E+00 0.  1.
      -24    2    1    2    0    0  0.00000000000E+00  0.00000000000E+00  0.60701155041E+02  0.93874593462E+02  0.71608722055E+02 0.  0.
       11    1    3    3    0    0 -0.34331758024E+02  0.40358647359E+01  0.42577803334E+02  0.54843660982E+02  0.00000000000E+00 0. -1.
      -12    1    3    3    0    0  0.34331758024E+02 -0.40358647359E+01  0.18123351708E+02  0.39030932480E+02  0.00000000000E+00 0.  1.
</event>
<event>
 5   0  0.2413800E+01  0.8053042E+02  0.7957747E-01  0.1326145E+00
       -2   -1    0    0    0  501  0.00000000000E+00  0.00000000000E+00  0.90359223560E+01  0.90359223560E+01  0.00000000000E+00 0.  1.
        1   -1    0    0  501    0  0.00000000000E+00  0.00000000000E+00 -0.17942683578E+03  0.17942683578E+03  0.00000000000E+00 0. -1.
      -24    2    1    2    0    0  0.00000000000E+00  0.00000000000E+00 -0.17039091342E+03  0.18846275813E+03  0.80530415538E+02 0.  0.
       11    1    3    3    0    0 -0.87038663793E+01  0.37219732287E+02 -0.11481822123E+03  0.12101359299E+03  0.00000000000E+00 0. -1.
      -12    1    3    3    0    0  0.87038663793E+01 -0.37219732287E+02 -0.55572692192E+02  0.67449165146E+02  0.00000000000E+00 0.  1.
</event>
<event>
 5   0  0.2413800E+01  0.8260186E+02  0.7957747E-01  0.1320718E+00
       -2   -1    0    0    0  501  0.00000000000E+00  0.00000000000E+00  0.40584786161E+02  0.40584786161E+02  0.00000000000E+00 0.  1.
        1   -1    0    0  501    0  0.00000000000E+00  0.00000000000E+00 -0.42029713169E+02  0.42029713169E+02  0.00000000000E+00 0. -1.
      -24    2    1    2    0    0  0.00000000000E+00  0.00000000000E+00 -0.14449270082E+01  0.82614499330E+02  0.82601862482E+02 0.  0.
       11    1    3    3    0    0  0.31926837017E+02  0.99105187284E+01 -0.24979536929E+02  0.41731505707E+02  0.00000000000E+00 0. -1.
      -12    1    3    3    0    0 -0.31926837017E+02 -0.99105187284E+01  0.23534609921E+02  0.40882993623E+02  0.00000000000E+00 0.  1.
</event>
<event>
 5   0  0.2413800E+01  0.7893265E+02  0.7957747E-01  0.1330460E+00
       -2   -1    0    0    0  501  0.00000000000E+00  0.00000000000E+00  0.41872174065E+01  0.41872174065E+01  0.00000000000E+00 0.  1.
        1   -1    0    0  501    0  0.00000000000E+00  0.00000000000E+00 -0.37198712535E+03  0.37198712535E+03  0.00000000000E+00 0. -1.
      -24    2    1    2    0    0  0.00000000000E+00  0.00000000000E+00 -0.36779990794E+03  0.37617434275E+03  0.78932653984E+02 0.  0.
       11    1    3    3    0    0 -0.37064485159E+02 -0.98697795481E+01 -0.22819909062E+03  0.23140011575E+03  0.00000000000E+00 0. -1.
      -12    1    3    3    0    0  0.37064485159E+02  0.98697795481E+01 -0.13960081732E+03  0.14477422700E+03  0.00000000000E+00 0.  1.
</event>
<event>
 5   0  0.2413800E+01  0.8085670E+02  0.7957747E-01  0.1325278E+00
        3   -1    0    0  501    0  0.00000000000E+00  0.00000000000E+00  0.63779092121E+02  0.63779092121E+02  0.00000000000E+00 0. -1.
       -4   -1    0    0    0  501  0.00000000000E+00  0.00000000000E+00 -0.25626762811E+02  0.25626762811E+02  0.00000000000E+00 0.  1.
      -24    2    1    2    0    0  0.00000000000E+00  0.00000000000E+00  0.38152329310E+02  0.89405854933E+02  0.80856704511E+02 0.  0.
       11    1    3    3    0    0  0.12021408089E+02 -0.27025424920E+02  0.49550346808E+02  0.57707232764E+02  0.00000000000E+00 0. -1.
      -12    1    3    3    0    0 -0.12021408089E+02  0.27025424920E+02 -0.11398017497E+02  0.31698622169E+02  0.00000000000E+00 0.  1.
</event>
<event>
 5   0  0.2413800E+01  0.7251346E+02  0.7957747E-01  0.1349036E+00
       -4   -1    0    0    0  501  0.00000000000E+00  0.00000000000E+00  0.15227933603E+02  0.15227933603E+02  0.00000000000E+00 0.  1.
        3   -1    0    0  501    0  0.00000000000E+00  0.00000000000E+00 -0.86324952382E+02  0.86324952382E+02  0.00000000000E+00 0. -1.
      -24    2    1    2    0    0  0.00000000000E+00  0.00000000000E+00 -0.71097018779E+02  0.10155288599E+03  0.72513464768E+02 0.  0.
       11    1    3    3    0    0  0.14264003189E+02 -0.25138135358E+02 -0.66204492919E+02  0.72238649759E+02  0.00000000000E+00 0. -1.
      -12    1    3    3    0    0 -0.14264003189E+02  0.25138135358E+02 -0.48925258605E+01  0.29314236227E+02  0.00000000000E+00 0.  1.
</event>
<event>
 5   0  0.2413800E+01  0.7321696E+02  0.7957747E-01  0.1346895E+00
       -2   -1    0    0    0  501  0.00000000000E+00  0.00000000000E+00  0.11889239854E+02  0.11889239854E+02  0.00000000000E+00 0.  1.
        1   -1    0    0  501    0  0.00000000000E+00  0.00000000000E+00 -0.11272217055E+03  0.11272217055E+03  0.00000000000E+00 0. -1.
      -24    2    1    2    0    0  0.00000000000E+00  0.00000000000E+00 -0.10083293070E+03  0.12461141041E+03  0.73216963131E+02 0.  0.
       11    1    3    3    0    0  0.22810651376E+02  0.24064015193E+02 -0.76825635415E+02  0.83675449807E+02  0.00000000000E+00 0. -1.
      -12    1    3    3    0    0 -0.22810651376E+02 -0.24064015193E+02 -0.24007295285E+02  0.40935960601E+02  0.00000000000E+00 0.  1.
</event>
<event>
 5   0  0.2413800E+01  0.7985943E+02  0.7957747E-01  0.1327943E+00
       -4   -1    0    0    0  501  0.00000000000E+00  0.00000000000E+00  0.82460187121E+02  0.82460187121E+02  0.00000000000E+00 0.  1.
        3   -1    0    0  501    0  0.00000000000E+00  0.00000000000E+00 -0.19335174742E+02  0.19335174742E+02  0.00000000000E+00 0. -1.
      -24    2    1    2    0    0  0.00000000000E+00  0.00000000000E+00  0.63125012379E+02  0.10179536186E+03  0.79859429680E+02 0.  0.
       11    1    3    3    0    0  0.11317771179E+02 -0.37886794627E+02  0.38645996314E+02  0.55290272044E+02  0.00000000000E+00 0. -1.
      -12    1    3    3    0    0 -0.11317771179E+02  0.37886794627E+02  0.24479016065E+02  0.46505089819E+02  0.00000000000E+00 0.  1.
</event>
<event>
 5   0  0.2413800E+01  0.7095397E+02  0.7957747E-01  0.1353881E+00
        1   -1    0    0  501    0  0.00000000000E+00  0.00000000000E+00  0.18838923197E+02  0.18838923197E+02  0.00000000000E+00 0. -1.
       -2   -1    0    0    0  501  0.00000000000E+00  0.00000000000E+00 -0.66809361408E+02  0.66809361408E+02  0.00000000000E+00 0.  1.
      -24    2    1    2    0    0  0.00000000000E+00  0.00000000000E+00 -0.47970438211E+02  0.85648284605E+02  0.70953968977E+02 0.  0.
       11    1    3    3    0    0 -0.34155525430E+02  0.93883432240E+01 -0.21608887158E+02  0.41493191130E+02  0.00000000000E+00 0. -1.
      -12    1    3    3    0    0  0.34155525430E+02 -0.93883432240E+01 -0.26361551053E+02  0.44155093476E+02  0.00000000000E+00 0.  1.
</event>
<event>
 5   0  0.2413800E+01  0.8389356E+02  0.7957747E-01  0.1317423E+00
        1   -1    0    0  501    0  0.00000000000E+00  0.00000000000E+00  0.26151989847E+03  0.26151989847E+03  0.00000000000E+00 0. -1.
       -2   -1    0    0    0  501  0.00000000000E+00  0.00000000000E+00 -0.67281008041E+01  0.67281008041E+01  0.00000000000E+00 0.  1.
      -24    2    1    2    0    0  0.00000000000E+00  0.00000000000E+00  0.25479179766E+03  0.26824799927E+03  0.83893557301E+02 0.  0.
       11    1    3    3    0    0 -0.14918096664E+02  0.38887402917E+02  0.14330397420E+03  0.14923407364E+03  0.00000000000E+00 0. -1.
      -12    1    3    3    0    0  0.14918096664E+02 -0.38887402917E+02  0.11148782347E+03  0.11901392564E+03  0.00000000000E+00 0.  1.
</event>
<event>
 5   0  0.2413800E+01  0.8086650E+02  0.7957747E-01  0.1325252E+00
       -2   -1    0    0    0  501  0.00000000000E+00  0.00000000000E+00  0.14143953937E+02  0.14143953937E+02  0.00000000000E+00 0.  1.
        1   -1    0    0  501    0  0.00000000000E+00  0.00000000000E+00 -0.11558631909E+03  0.11558631909E+03  0.00000000000E+00 0. -1.
      -24    2    1    2    0    0  0.00000000000E+00  0.00000000000E+00 -0.10144236515E+03  0.12973027303E+03  0.80866496721E+02 0.  0.
       11    1    3    3    0    0 -0.11340308206E+02 -0.36520657267E+02 -0.71790494514E+02  0.81340248954E+02  0.00000000000E+00 0. -1.
      -12    1    3    3    0    0  0.11340308206E+02  0.36520657267E+02 -0.29651870641E+02  0.48390024074E+02  0.00000000000E+00 0.  1.
</event>
<event>
 5   0  0.2413800E+01  0.7980576E+02  0.7957747E-01  0.1328088E+00
        1   -1    0    0  501    0  0.00000000000E+00  0.00000000000E+00  0.41739303201E+03  0.41739303201E+03  0.00000000000E+00 0. -1.
       -2   -1    0    0    0  501  0.00000000000E+00  0.00000000000E+00 -0.38147256816E+01  0.38147256816E+01  0.00000000000E+00 0.  1.
      -24    2    1    2    0    0  0.00000000000E+00  0.00000000000E+00  0.41357830632E+03  0.42120775769E+03  0.79805762161E+02 0.  0.
       11    1    3    3    0    0 -0.37132113109E+02  0.14095656803E+02  0.18651307229E+03  0.19069506418E+03  0.00000000000E+00 0. -1.
      -12    1    3    3    0    0  0.37132113109E+02 -0.14095656803E+02  0.22706523403E+03  0.23051269351E+03  0.00000000000E+00 0.  1.
</event>
<event>
 5   0  0.2413800E+01  0.8073938E+02  0.7957747E-01  0.1325589E+00
        1   -1    0    0  501    0  0.00000000000E+00  0.00000000000E+00  0.12618239848E+03  0.12618239848E+03  0.00000000000E+00 0. -1.
       -2   -1    0    0    0  501  0.00000000000E+00  0.00000000000E+00 -0.12915525548E+02  0.12915525548E+02  0.00000000000E+00 0.  1.
      -24    2    1    2    0    0  0.00000000000E+00  0.00000000000E+00  0.11326687293E+03  0.13909792403E+03  0.80739382987E+02 0.  0.
       11    1    3    3    0    0 -0.20379238000E+02 -0.18185685438E+01  0.11658819977E+03  0.11836988155E+03  0.00000000000E+00 0. -1.
      -12    1    3    3    0    0  0.20379238000E+02  0.18185685438E+01 -0.33213268367E+01  0.20728042478E+02  0.00000000000E+00 0.  1.
</event>
<event>
 5   0  0.2413800E+01  0.8044519E+02  0.7957747E-01  0.1326372E+00
       -4   -1    0    0    0  501  0.00000000000E+00  0.00000000000E+00  0.25745700336E+02  0.25745700336E+02  0.00000000000E+00 0.  1.
        3   -1    0    0  501    0  0.00000000000E+00  0.00000000000E+00 -0.62839898472E+02  0.62839898472E+02  0.00000000000E+00 0. -1.
      -24    2    1    2    0    0  0.00000000000E+00  0.00000000000E+00 -0.37094198136E+02  0.88585598809E+02  0.80445191161E+02 0.  0.
       11    1    3    3    0    0  0.17551697107E+02  0.35289748926E+02 -0.97081043979E+01  0.40591572297E+02  0.00000000000E+00 0. -1.
      -12    1    3    3    0    0 -0.17551697107E+02 -0.35289748926E+02 -0.27386093738E+02  0.47994026512E+02  0.00000000000E+00 0.  1.
</event>
<event>
 5   0  0.2413800E+01  0.8092109E+02  0.7957747E-01  0.1325107E+00
        1   -1    0    0  501    0  0.00000000000E+00  0.00000000000E+00  0.96000633283E+02  0.96000633283E+02  0.00000000000E+00 0. -1.
       -2   -1    0    0    0  501  0.00000000000E+00  0.00000000000E+00 -0.17052552622E+02  0.17052552622E+02  0.00000000000E+00 0.  1.
      -24    2    1    2    0    0  0.00000000000E+00  0.00000000000E+00  0.78948080661E+02  0.11305318590E+03  0.80921093686E+02 0.  0.
       11    1    3    3    0    0  0.14129068996E+02 -0.10673525640E+02  0.90299722544E+02  0.92019533969E+02  0.00000000000E+00 0. -1.
      -12    1    3    3    0    0 -0.14129068996E+02  0.10673525640E+02 -0.11351641884E+02  0.21033651936E+02  0.00000000000E+00 0.  1.
</event>
<event>
 5   0  0.2413800E+01  0.8055072E+02  0.7957747E-01  0.1326091E+00
        1   -1    0    0  501    0  0.00000000000E+00  0.00000000000E+00  0.39683500974E+01  0.39683500974E+01  0.00000000000E+00 0. -1.
       -2   -1    0    0    0  501  0.00000000000E+00  0.00000000000E+00 -0.40876050560E+03  0.40876050560E+03  0.00000000000E+00 0.  1.
      -24    2    1    2    0    0  0.00000000000E+00  0.00000000000E+00 -0.40479215550E+03  0.41272885570E+03  0.80550724198E+02 0.  0.
       11    1    3    3    0    0  0.20978643736E+02 -0.31821979049E+02 -0.13571469653E+03  0.14096531736E+03  0.00000000000E+00 0. -1.
      -12    1    3    3    0    0 -0.20978643736E+02  0.31821979049E+02 -0.26907745898E+03  0.27176353834E+03  0.00000000000E+00 0.  1.
</event>
<event>
 5   0  0.2413800E+01  0.8046784E+02  0.7957747E-01  0.1326312E+00
       -2   -1    0    0    0  501  0.00000000000E+00  0.00000000000E+00  0.97218450487E+02  0.97218450487E+02  0.00000000000E+00 0.  1.
        1   -1    0    0  501    0  0.00000000000E+00  0.00000000000E+00 -0.16650834704E+02  0.16650834704E+02  0.00000000000E+00 0. -1.
      -24    2    1    2    0    0  0.00000000000E+00  0.00000000000E+00  0.80567615783E+02  0.11386928519E+03  0.80467840762E+02 0.  0.
       11    1    3    3    0    0 -0.26379490123E+01 -0.40026307640E+02  0.35875563091E+02  0.53815612097E+02  0.00000000000E+00 0. -1.
      -12    1    3    3    0    0  0.26379490123E+01  0.40026307640E+02  0.44692052692E+02  0.60053673094E+02  0.00000000000E+00 0.  1.
</event>
<event>
 5   0  0.2413800E+01  0.8044681E+02  0.7957747E-01  0.1326368E+00
        1   -1    0    0  501    0  0.00000000000E+00  0.00000000000E+00  0.15991036087E+03  0.15991036087E+03  0.00000000000E+00 0. -1.
       -2   -1    0    0    0  501  0.00000000000E+00  0.00000000000E+00 -0.10117682044E+02  0.10117682044E+02  0.00000000000E+00 0.  1.
      -24    2    1    2    0    0  0.00000000000E+00  0.00000000000E+00  0.14979267883E+03  0.17002804292E+03  0.80446806943E+02 0.  0.
       11    1    3    3    0    0  0.32674935846E+02  0.19944605816E+00  0.12447379827E+03  0.12869117168E+03  0.00000000000E+00 0. -1.
      -12    1    3    3    0    0 -0.32674935846E+02 -0.19944605816E+00  0.25318880557E+02  0.41336871240E+02  0.00000000000E+00 0.  1.
</event>
<event>
 5   0  0.2413800E+01  0.7928210E+02  0.7957747E-01  0.1329506E+00
        1   -1    0    0  501    0  0.00000000000E+00  0.00000000000E+00  0.14594163121E+03  0.14594163121E+03  0.00000000000E+00 0. -1.
       -2   -1    0    0    0  501  0.00000000000E+00  0.00000000000E+00 -0.10767407182E+02  0.10767407182E+02  0.00000000000E+00 0.  1.
      -24    2    1    2    0    0  0.00000000000E+00  0.00000000000E+00  0.13517422402E+03  0.15670903839E+03  0.79282103099E+02 0.  0.
       11    1    3    3    0    0 -0.24011365600E+02 -0.67965371531E+01  0.12846750792E+03  0.13086878614E+03  0.00000000000E+00 0. -1.
      -12    1    3    3    0    0  0.24011365600E+02  0.67965371531E+01  0.67067161053E+01  0.25840252246E+02  0.00000000000E+00 0.  1.
</event>
<event>
 5   0  0.2413800E+01  0.1045135E+03  0.7957747E-01  0.1272470E+00
        1   -1    0    0  501    0  0.00000000000E+00  0.00000000000E+00  0.21171737987E+03  0.21171737987E+03  0.00000000000E+00 0. -1.
       -2   -1    0    0    0  501  0.00000000000E+00  0.00000000000E+00 -0.12898165935E+02  0.12898165935E+02  0.00000000000E+00 0.  1.
      -24    2    1    2    0    0  0.00000000000E+00  0.00000000000E+00  0.19881921393E+03  0.22461554580E+03  0.10451346127E+03 0.  0.
       11    1    3    3    0    0 -0.16849531036E+02  0.28839364220E+02  0.18578182001E+03  0.18876043090E+03  0.00000000000E+00 0. -1.
      -12    1    3    3    0    0  0.16849531036E+02 -0.28839364220E+02  0.13037393920E+02  0.35855114907E+02  0.00000000000E+00 0.  1.
</event>
<event>
 5   0  0.2413800E+01  0.7985297E+02  0.7957747E-01  0.1327961E+00
        1   -1    0    0  501    0  0.00000000000E+00  0.00000000000E+00  0.23205188942E+03  0.23205188942E+03  0.00000000000E+00 0. -1.
       -2   -1    0    0    0  501  0.00000000000E+00  0.00000000000E+00 -0.68696879861E+01  0.68696879861E+01  0.00000000000E+00 0.  1.
      -24    2    1    2    0    0  0.00000000000E+00  0.00000000000E+00  0.22518220143E+03  0.23892157740E+03  0.79852966805E+02 0.  0.
       11    1    3    3    0    0 -0.31530032020E+02 -0.20306722611E+02  0.15357391425E+03  0.15808685284E+03  0.00000000000E+00 0. -1.
      -12    1    3    3    0    0  0.31530032020E+02  0.20306722611E+02  0.71608287178E+02  0.80834724562E+02  0.00000000000E+00 0.  1.
</event>
<event>
 5   0  0.2413800E+01  0.8038704E+02  0.7957747E-01  0.1326528E+00
       -4   -1    0    0    0  501  0.00000000000E+00  0.00000000000E+00  0.34140925298E+02  0.34140925298E+02  0.00000000000E+00 0.  1.
        3   -1    0    0  501    0  0.00000000000E+00  0.00000000000E+00 -0.47319138564E+02  0.47319138564E+02  0.00000000000E+00 0. -1.
      -24    2    1    2    0    0  0.00000000000E+00  0.00000000000E+00 -0.13178213266E+02  0.81460063862E+02  0.80387043108E+02 0.  0.
       11    1    3    3    0    0  0.12334928623E+01 -0.30506968786E+02 -0.33078472437E+02  0.45015352802E+02  0.00000000000E+00 0. -1.
      -12    1    3    3    0    0 -0.12334928623E+01  0.30506968786E+02  0.19900259171E+02  0.36444711060E+02  0.00000000000E+00 0.  1.
</event>
<event>
 5   0  0.2413800E+01  0.7995654E+02  0.7957747E-01  0.1327682E+00
       -4   -1    0    0    0  501  0.00000000000E+00  0.00000000000E+00  0.50859863467E+03  0.50859863467E+03  0.00000000000E+00 0.  1.
        3   -1    0    0  501    0  0.00000000000E+00  0.00000000000E+00 -0.31424823574E+01  0.31424823574E+01  0.00000000000E+00 0. -1.
      -24    2    1    2    0    0  0.00000000000E+00  0.00000000000E+00  0.50545615231E+03  0.51174111703E+03  0.79956544109E+02 0.  0.
       11    1    3    3    0    0  0.14961363105E+01  0.28867559250E+02  0.75973890127E+02  0.81287184611E+02  0.00000000000E+00 0. -1.
      -12    1    3    3    0    0 -0.14961363105E+01 -0.28867559250E+02  0.42948226219E+03  0.43045393242E+03  0.00000000000E+00 0.  1.
</event>
<event>
 5   0  0.2413800E+01  0.8152544E+02  0.7957747E-01  0.1323515E+00
        3   -1    0    0  501    0  0.00000000000E+00  0.00000000000E+00  0.12947807033E+03  0.12947807033E+03  0.00000000000E+00 0. -1.
       -4   -1    0    0    0  501  0.00000000000E+00  0.00000000000E+00 -0.12833055688E+02  0.12833055688E+02  0.00000000000E+00 0.  1.
      -24    2    1    2    0    0  0.00000000000E+00  0.00000000000E+00  0.11664501464E+03  0.14231112601E+03  0.81525438652E+02 0.  0.
       11    1    3    3    0    0  0.29145872614E+02  0.19722105191E+02  0.94230898150E+02  0.10058779991E+03  0.00000000000E+00 0. -1.
      -12    1    3    3    0    0 -0.29145872614E+02 -0.19722105191E+02  0.22414116487E+02  0.41723326108E+02  0.00000000000E+00 0.  1.
</event>
<event>
 5   0  0.2413800E+01  0.8017404E+02  0.7957747E-01  0.1327098E+00
        1   -1    0    0  501    0  0.00000000000E+00  0.00000000000E+00  0.22141101761E+01  0.22141101761E+01  0.00000000000E+00 0. -1.
       -2   -1    0    0    0  501  0.00000000000E+00  0.00000000000E+00 -0.72578554046E+03  0.72578554046E+03  0.00000000000E+00 0.  1.
      -24    2    1    2    0    0  0.00000000000E+00  0.00000000000E+00 -0.72357143028E+03  0.72799965063E+03  0.80174039459E+02 0.  0.
       11    1    3    3    0    0 -0.16448142150E+02  0.16999201787E+02 -0.67909069772E+02  0.71910750232E+02  0.00000000000E+00 0. -1.
      -12    1    3    3    0    0  0.16448142150E+02 -0.16999201787E+02 -0.65566236051E+03  0.65608890040E+03  0.00000000000E+00 0.  1.
</event>
<event>
 5   0  0.2413800E+01  0.7731259E+02  0.7957747E-01  0.1334954E+00
       -2   -1    0    0    0  501  0.00000000000E+00  0.00000000000E+00  0.83265092883E+01  0.83265092883E+01  0.00000000000E+00 0.  1.
        1   -1    0    0  501    0  0.00000000000E+00  0.00000000000E+00 -0.17946405628E+03  0.17946405628E+03  0.00000000000E+00 0. -1.
      -24    2    1    2    0    0  0.00000000000E+00  0.00000000000E+00 -0.17113754699E+03  0.18779056557E+03  0.77312589700E+02 0.  0.
       11    1    3    3    0    0  0.56464453944E+01  0.25701231164E+02 -0.15435103966E+03  0.15657802871E+03  0.00000000000E+00 0. -1.
      -12    1    3    3    0    0 -0.56464453944E+01 -0.25701231164E+02 -0.16786507327E+02  0.31212536859E+02  0.00000000000E+00 0.  1.
</event>
<event>
 5   0  0.2413800E+01  0.7955760E+02  0.7957747E-01  0.1328758E+00
       -2   -1    0    0    0  501  0.00000000000E+00  0.00000000000E+00  0.10344507991E+02  0.10344507991E+02  0.00000000000E+00 0.  1.
        1   -1    0    0  501    0  0.00000000000E+00  0.00000000000E+00 -0.15296549551E+03  0.15296549551E+03  0.00000000000E+00 0. -1.
      -24    2    1    2    0    0  0.00000000000E+00  0.00000000000E+00 -0.14262098752E+03  0.16331000350E+03  0.79557596513E+02 0.  0.
       11    1    3    3    0    0  0.25348971836E+02 -0.25400116070E+02 -0.10654430979E+03  0.11242520277E+03  0.00000000000E+00 0. -1.
      -12    1    3    3    0    0 -0.25348971836E+02  0.25400116070E+02 -0.36076677734E+02  0.50884800735E+02  0.00000000000E+00 0.  1.
</event>
<event>
 5   0  0.2413800E+01  0.7761188E+02  0.7957747E-01  0.1334114E+00
        1   -1    0    0  501    0  0.00000000000E+00  0.00000000000E+00  0.29574127445E+03  0.29574127445E+03  0.00000000000E+00 0. -1.
       -2   -1    0    0    0  501  0.00000000000E+00  0.00000000000E+00 -0.50919536726E+01  0.50919536726E+01  0.00000000000E+00 0.  1.
      -24    2    1    2    0    0  0.00000000000E+00  0.00000000000E+00  0.29064932078E+03  0.30083322813E+03  0.77611877148E+02 0.  0.
       11    1    3    3    0    0  0.16009464847E+02 -0.31161676157E+02  0.21001620434E+03  0.21291819817E+03  0.00000000000E+00 0. -1.
      -12    1    3    3    0    0 -0.16009464847E+02  0.31161676157E+02  0.80633116441E+02  0.87915029958E+02  0.00000000000E+00 0.  1.
</event>
<event>
 5   0  0.2413800E+01  0.8090103E+02  0.7957747E-01  0.1325161E+00
       -2   -1    0    0    0  501  0.00000000000E+00  0.00000000000E+00  0.16776969902E+03  0.16776969902E+03  0.00000000000E+00 0.  1.
        1   -1    0    0  501    0  0.00000000000E+00  0.00000000000E+00 -0.97529192908E+01  0.97529192908E+01  0.00000000000E+00 0. -1.
      -24    2    1    2    0    0  0.00000000000E+00  0.00000000000E+00  0.15801677973E+03  0.17752261831E+03  0.80901034208E+02 0.  0.
       11    1    3    3    0    0 -0.34954604025E+02  0.76717703773E+01  0.37631440247E+02  0.51930777949E+02  0.00000000000E+00 0. -1.
      -12    1    3    3    0    0  0.34954604025E+02 -0.76717703773E+01  0.12038533948E+03  0.12559184036E+03  0.00000000000E+00 0.  1.
</event>
<event>
 5   0  0.2413800E+01  0.7925175E+02  0.7957747E-01  0.1329589E+00
       -2   -1    0    0    0  501  0.00000000000E+00  0.00000000000E+00  0.65602628314E+02  0.65602628314E+02  0.00000000000E+00 0.  1.
        1   -1    0    0  501    0  0.00000000000E+00  0.00000000000E+00 -0.23935170585E+02  0.23935170585E+02  0.00000000000E+00 0. -1.
      -24    2    1    2    0    0  0.00000000000E+00  0.00000000000E+00  0.41667457729E+02  0.89537798898E+02  0.79251753280E+02 0.  0.
       11    1    3    3    0    0 -0.28186275269E+02  0.27831433516E+02  0.22048078818E+02  0.45334011346E+02  0.00000000000E+00 0. -1.
      -12    1    3    3    0    0  0.28186275269E+02 -0.27831433516E+02  0.19619378911E+02  0.44203787553E+02  0.00000000000E+00 0.  1.
</event>
<event>
 5   0  0.2413800E+01  0.7883158E+02  0.7957747E-01  0.1330736E+00
        1   -1    0    0  501    0  0.00000000000E+00  0.00000000000E+00  0.13857541734E+03  0.13857541734E+03  0.00000000000E+00 0. -1.
       -2   -1    0    0    0  501  0.00000000000E+00  0.00000000000E+00 -0.11211256024E+02  0.11211256024E+02  0.00000000000E+00 0.  1.
      -24    2    1    2    0    0  0.00000000000E+00  0.00000000000E+00  0.12736416131E+03  0.14978667336E+03  0.78831579518E+02 0.  0.
       11    1    3    3    0    0  0.90654496569E+01 -0.38027145015E+02  0.73250350524E+02  0.83029271871E+02  0.00000000000E+00 0. -1.
      -12    1    3    3    0    0 -0.90654496569E+01  0.38027145015E+02  0.54113810788E+02  0.66757401488E+02  0.00000000000E+00 0.  1.
</event>
<event>
 5   0  0.2413800E+01  0.8025770E+02  0.7957747E-01  0.1326874E+00
       -4   -1    0    0    0  501  0.00000000000E+00  0.00000000000E+00  0.13962309328E+02  0.13962309328E+02  0.00000000000E+00 0.  1.
        3   -1    0    0  501    0  0.00000000000E+00  0.00000000000E+00 -0.11533367242E+03  0.11533367242E+03  0.00000000000E+00 0. -1.
      -24    2    1    2    0    0  0.00000000000E+00  0.00000000000E+00 -0.10137136310E+03  0.12929598175E+03  0.80257695214E+02 0.  0.
       11    1    3    3    0    0  0.11568934127E+02  0.34948906810E+02 -0.76414384486E+02  0.84819953315E+02  0.00000000000E+00 0. -1.
      -12    1    3    3    0    0 -0.11568934127E+02 -0.34948906810E+02 -0.24956978610E+02  0.44476028436E+02  0.00000000000E+00 0.  1.
</event>
<event>
 5   0  0.2413800E+01  0.8389955E+02  0.7957747E-01  0.1317408E+00
       -2   -1    0    0    0  501  0.00000000000E+00  0.00000000000E+00  0.57600354115E+01  0.57600354115E+01  0.00000000000E+00 0.  1.
        1   -1    0    0  501    0  0.00000000000E+00  0.00000000000E+00 -0.30551613663E+03  0.30551613663E+03  0.00000000000E+00 0. -1.
      -24    2    1    2    0    0  0.00000000000E+00  0.00000000000E+00 -0.29975610122E+03  0.31127617204E+03  0.83899553414E+02 0.  0.
       11    1    3    3    0    0  0.21749048601E+02 -0.28147455798E+02 -0.67376506165E+02  0.76189854744E+02  0.00000000000E+00 0. -1.
      -12    1    3    3    0    0 -0.21749048601E+02  0.28147455798E+02 -0.23237959505E+03  0.23508631729E+03  0.00000000000E+00 0.  1.
</event>
<event>
 5   0  0.2413800E+01  0.7959970E+02  0.7957747E-01  0.1328644E+00
        1   -1    0    0  501    0  0.00000000000E+00  0.00000000000E+00  0.43248439226E+03  0.43248439226E+03  0.00000000000E+00 0. -1.
       -2   -1    0    0    0  501  0.00000000000E+00  0.00000000000E+00 -0.36626250736E+01  0.36626250736E+01  0.00000000000E+00 0.  1.
      -24    2    1    2    0    0  0.00000000000E+00  0.00000000000E+00  0.42882176718E+03  0.43614701733E+03  0.79599702990E+02 0.  0.
       11    1    3    3    0    0 -0.29418297607E+02 -0.23904384751E+02  0.14793952595E+03  0.15271856201E+03  0.00000000000E+00 0. -1.
      -12    1    3    3    0    0  0.29418297607E+02  0.23904384751E+02  0.28088224123E+03  0.28342845532E+03  0.00000000000E+00 0.  1.
</event>
<event>
 5   0  0.2413800E+01  0.7812090E+02  0.7957747E-01  0.1332696E+00
        1   -1    0    0  501    0  0.00000000000E+00  0.00000000000E+00  0.54386284573E+01  0.54386284573E+01  0.00000000000E+00 0. -1.
       -2   -1    0    0    0  501  0.00000000000E+00  0.00000000000E+00 -0.28053374907E+03  0.28053374907E+03  0.00000000000E+00 0.  1.
      -24    2    1    2    0    0  0.00000000000E+00  0.00000000000E+00 -0.27509512061E+03  0.28597237753E+03  0.78120901965E+02 0.  0.
       11    1    3    3    0    0 -0.32356512060E+02 -0.12169792812E+02 -0.70981177534E+02  0.78951727618E+02  0.00000000000E+00 0. -1.
      -12    1    3    3    0    0  0.32356512060E+02  0.12169792812E+02 -0.20411394308E+03  0.20702064991E+03  0.00000000000E+00 0.  1.
</event>
<event>
 5   0  0.2413800E+01  0.7996502E+02  0.7957747E-01  0.1327659E+00
       -2   -1    0    0    0  501  0.00000000000E+00  0.00000000000E+00  0.11504085703E+03  0.11504085703E+03  0.00000000000E+00 0.  1.
        1   -1    0    0  501    0  0.00000000000E+00  0.00000000000E+00 -0.13895942473E+02  0.13895942473E+02  0.00000000000E+00 0. -1.
      -24    2    1    2    0    0  0.00000000000E+00  0.00000000000E+00  0.10114491456E+03  0.12893679951E+03  0.79965020636E+02 0.  0.
       11    1    3    3    0    0 -0.87459231640E+01 -0.11346402365E+02 -0.96155440344E+01  0.17253715707E+02  0.00000000000E+00 0. -1.
      -12    1    3    3    0    0  0.87459231640E+01  0.11346402365E+02  0.11076045859E+03  0.11168308380E+03  0.00000000000E+00 0.  1.
</event>
<event>
 4   0  0.2413800E+01  0.1164917E+03  0.7957747E-01  0.1251388E+00
        3   -1    0    0  501    0  0.00000000000E+00  0.00000000000E+00  0.72436193394E+02  0.72436193394E+02  0.00000000000E+00 0. -1.
       -4   -1    0    0    0  501  0.00000000000E+00  0.00000000000E+00 -0.46835429436E+02  0.46835429436E+02  0.00000000000E+00 0.  1.
       11    1    1    2    0    0 -0.47398265795E+01  0.51745310979E+02  0.39744475615E+02  0.65419160084E+02  0.00000000000E+00 0. -1.
      -12    1    1    2    0    0  0.47398265795E+01 -0.51745310979E+02 -0.14143711657E+02  0.53852462745E+02  0.00000000000E+00 0.  1.
</event>
<event>
 5   0  0.2413800E+01  0.8105910E+02  0.7957747E-01  0.1324743E+00
       -4   -1    0    0    0  501  0.00000000000E+00  0.00000000000E+00  0.16678708435E+03  0.16678708435E+03  0.00000000000E+00 0.  1.
        3   -1    0    0  501    0  0.00000000000E+00  0.00000000000E+00 -0.98487499047E+01  0.98487499047E+01  0.00000000000E+00 0. -1.
      -24    2    1    2    0    0  0.00000000000E+00  0.00000000000E+00  0.15693833445E+03  0.17663583426E+03  0.81059096494E+02 0.  0.
       11    1    3    3    0    0  0.11195795487E+02  0.15551453934E+02  0.64600070231E+00  0.19173181086E+02  0.00000000000E+00 0. -1.
      -12    1    3    3    0    0 -0.11195795487E+02 -0.15551453934E+02  0.15629233375E+03  0.15746265317E+03  0.00000000000E+00 0.  1.
</event>
<event>
 5   0  0.2413800E+01  0.8014864E+02  0.7957747E-01  0.1327166E+00
        1   -1    0    0  501    0  0.00000000000E+00  0.00000000000E+00  0.23928151976E+02  0.23928151976E+02  0.00000000000E+00 0. -1.
       -2   -1    0    0    0  501  0.00000000000E+00  0.00000000000E+00 -0.67115547578E+02  0.67115547578E+02  0.00000000000E+00 0.  1.
      -24    2    1    2    0    0  0.00000000000E+00  0.00000000000E+00 -0.43187395603E+02  0.91043699554E+02  0.80148637478E+02 0.  0.
       11    1    3    3    0    0  0.35108539486E+02 -0.17168294951E+02 -0.11523441857E+02  0.40744933533E+02  0.00000000000E+00 0. -1.
      -12    1    3    3    0    0 -0.35108539486E+02  0.17168294951E+02 -0.31663953746E+02  0.50298766021E+02  0.00000000000E+00 0.  1.
</event>
<event>
 5   0  0.2413800E+01  0.8026982E+02  0.7957747E-01  0.1326841E+00
       -4   -1    0    0    0  501  0.00000000000E+00  0.00000000000E+00  0.65467914011E+02  0.65467914011E+02  0.00000000000E+00 0.  1.
        3   -1    0    0  501    0  0.00000000000E+00  0.00000000000E+00 -0.24604586214E+02  0.24604586214E+02  0.00000000000E+00 0. -1.
      -24    2    1    2    0    0  0.00000000000E+00  0.00000000000E+00  0.40863327796E+02  0.90072500225E+02  0.80269818352E+02 0.  0.
       11    1    3    3    0    0  0.22456278443E+02  0.25939168822E+01 -0.16781484777E+02  0.28153704509E+02  0.00000000000E+00 0. -1.
      -12    1    3    3    0    0 -0.22456278443E+02 -0.25939168822E+01  0.57644812573E+02  0.61918795716E+02  0.00000000000E+00 0.  1.
</event>
<event>
 5   0  0.2413800E+01  0.7794426E+02  0.7957747E-01  0.1333187E+00
        1   -1    0    0  501    0  0.00000000000E+00  0.00000000000E+00  0.49938885648E+02  0.49938885648E+02  0.00000000000E+00 0. -1.
       -2   -1    0    0    0  501  0.00000000000E+00  0.00000000000E+00 -0.30413711810E+02  0.30413711810E+02  0.00000000000E+00 0.  1.
      -24    2    1    2    0    0  0.00000000000E+00  0.00000000000E+00  0.19525173838E+02  0.80352597458E+02  0.77944258960E+02 0.  0.
       11    1    3    3    0    0  0.18308360853E+02 -0.24431994656E+02  0.34733070570E+02  0.46243968593E+02  0.00000000000E+00 0. -1.
      -12    1    3    3    0    0 -0.18308360853E+02  0.24431994656E+02 -0.15207896733E+02  0.34108628865E+02  0.00000000000E+00 0.  1.
</event>
<event>
 5   0  0.2413800E+01  0.8696971E+02  0.7957747E-01  0.1309841E+00
        1   -1    0    0  501    0  0.00000000000E+00  0.00000000000E+00  0.67822167341E+01  0.67822167341E+01  0.00000000000E+00 0. -1.
       -2   -1    0    0    0  501  0.00000000000E+00  0.00000000000E+00 -0.27880747758E+03  0.27880747758E+03  0.00000000000E+00 0.  1.
      -24    2    1    2    0    0  0.00000000000E+00  0.00000000000E+00 -0.27202526085E+03  0.28558969432E+03  0.86969712890E+02 0.  0.
       11    1    3    3    0    0  0.29711613332E+02 -0.11851419822E+02 -0.39283240545E+02  0.50659738514E+02  0.00000000000E+00 0. -1.
      -12    1    3    3    0    0 -0.29711613332E+02  0.11851419822E+02 -0.23274202030E+03  0.23492995580E+03  0.00000000000E+00 0.  1.
</event>
<event>
 5   0  0.2413800E+01  0.7419202E+02  0.7957747E-01  0.1343973E+00
       -2   -1    0    0    0  501  0.00000000000E+00  0.00000000000E+00  0.13686154483E+03  0.13686154483E+03  0.00000000000E+00 0.  1.
        1   -1    0    0  501    0  0.00000000000E+00  0.00000000000E+00 -0.10054789271E+02  0.10054789271E+02  0.00000000000E+00 0. -1.
      -24    2    1    2    0    0  0.00000000000E+00  0.00000000000E+00  0.12680675556E+03  0.14691633410E+03  0.74192020932E+02 0.  0.
       11    1    3    3    0    0 -0.14078073612E+02  0.33767408124E+02  0.51247361023E+02  0.62966038623E+02  0.00000000000E+00 0. -1.
      -12    1    3    3    0    0  0.14078073612E+02 -0.33767408124E+02  0.75559394534E+02  0.83950295475E+02  0.00000000000E+00 0.  1.
</event>
<event>
 5   0  0.2413800E+01  0.7710619E+02  0.7957747E-01  0.1335535E+00
        1   -1    0    0  501    0  0.00000000000E+00  0.00000000000E+00  0.27034852388E+02  0.27034852388E+02  0.00000000000E+00 0. -1.
       -2   -1    0    0    0  501  0.00000000000E+00  0.00000000000E+00 -0.54978707298E+02  0.54978707298E+02  0.00000000000E+00 0.  1.
      -24    2    1    2    0    0  0.00000000000E+00  0.00000000000E+00 -0.27943854909E+02  0.82013559686E+02  0.77106192651E+02 0.  0.
       11    1    3    3    0    0  0.13471498287E+02 -0.14625268067E+02  0.21159930354E+02  0.29036569782E+02  0.00000000000E+00 0. -1.
      -12    1    3    3    0    0 -0.13471498287E+02  0.14625268067E+02 -0.49103785263E+02  0.52976989904E+02  0.00000000000E+00 0.  1.
</event>
<event>
 5   0  0.2413800E+01  0.8119862E+02  0.7957747E-01  0.1324374E+00
        3   -1    0    0  501    0  0.00000000000E+00  0.00000000000E+00  0.10853552431E+03  0.10853552431E+03  0.00000000000E+00 0. -1.
       -4   -1    0    0    0  501  0.00000000000E+00  0.00000000000E+00 -0.15186769195E+02  0.15186769195E+02  0.00000000000E+00 0.  1.
      -24    2    1    2    0    0  0.00000000000E+00  0.00000000000E+00  0.93348755110E+02  0.12372229350E+03  0.81198619621E+02 0.  0.
       11    1    3    3    0    0 -0.39858310499E+02  0.67654932974E+01  0.41004425534E+02  0.57583154905E+02  0.00000000000E+00 0. -1.
      -12    1    3    3    0    0  0.39858310499E+02 -0.67654932974E+01  0.52344329576E+02  0.66139138596E+02  0.00000000000E+00 0.  1.
</event>
<event>
 5   0  0.2413800E+01  0.8110806E+02  0.7957747E-01  0.1324613E+00
       -2   -1    0    0    0  501  0.00000000000E+00  0.00000000000E+00  0.24663898689E+02  0.24663898689E+02  0.00000000000E+00 0.  1.
        1   -1    0    0  501    0  0.00000000000E+00  0.00000000000E+00 -0.66681644751E+02  0.66681644751E+02  0.00000000000E+00 0. -1.
      -24    2    1    2    0    0  0.00000000000E+00  0.00000000000E+00 -0.42017746061E+02  0.91345543440E+02  0.81108059539E+02 0.  0.
       11    1    3    3    0    0 -0.37945793196E+02 -0.56596634901E+01 -0.62079934858E+01  0.38864562203E+02  0.00000000000E+00 0. -1.
      -12    1    3    3    0    0  0.37945793196E+02  0.56596634901E+01 -0.35809752576E+02  0.52480981237E+02  0.00000000000E+00 0.  1.
</event>
<event>
 5   0  0.2413800E+01  0.8503940E+02  0.7957747E-01  0.1314557E+00
        1   -1    0    0  501    0  0.00000000000E+00  0.00000000000E+00  0.39060652987E+01  0.39060652987E+01  0.00000000000E+00 0. -1.
       -2   -1    0    0    0  501  0.00000000000E+00  0.00000000000E+00 -0.46285065962E+03  0.46285065962E+03  0.00000000000E+00 0.  1.
      -24    2    1    2    0    0  0.00000000000E+00  0.00000000000E+00 -0.45894459432E+03  0.46675672492E+03  0.85039400280E+02 0.  0.
       11    1    3    3    0    0 -0.36722758906E+01 -0.93279434802E+01 -0.26730067998E+01  0.10375023139E+02  0.00000000000E+00 0. -1.
      -12    1    3    3    0    0  0.36722758906E+01  0.93279434802E+01 -0.45627158752E+03  0.45638170178E+03  0.00000000000E+00 0.  1.
</event>
<event>
 5   0  0.2413800E+01  0.7991792E+02  0.7957747E-01  0.1327786E+00
       -2   -1    0    0    0  501  0.00000000000E+00  0.00000000000E+00  0.19481831705E+03  0.19481831705E+03  0.00000000000E+00 0.  1.
        1   -1    0    0  501    0  0.00000000000E+00  0.00000000000E+00 -0.81959367656E+01  0.81959367656E+01  0.00000000000E+00 0. -1.
      -24    2    1    2    0    0  0.00000000000E+00  0.00000000000E+00  0.18662238028E+03  0.20301425382E+03  0.79917923079E+02 0.  0.
       11    1    3    3    0    0  0.17702487826E+02  0.34866680787E+02  0.11420572089E+03  0.12071458151E+03  0.00000000000E+00 0. -1.
      -12    1    3    3    0    0 -0.17702487826E+02 -0.34866680787E+02  0.72416659392E+02  0.82299672307E+02  0.00000000000E+00 0.  1.
</event>
<event>
 5   0  0.2413800E+01  0.1090104E+03  0.7957747E-01  0.1264201E+00
       -2   -1    0    0    0  501  0.00000000000E+00  0.00000000000E+00  0.14495859272E+03  0.14495859272E+03  0.00000000000E+00 0.  1.
        1   -1    0    0  501    0  0.00000000000E+00  0.00000000000E+00 -0.20494231866E+02  0.20494231866E+02  0.00000000000E+00 0. -1.
      -24    2    1    2    0    0  0.00000000000E+00  0.00000000000E+00  0.12446436085E+03  0.16545282458E+03  0.10901036666E+03 0.  0.
       11    1    3    3    0    0  0.21719241627E+02 -0.44780596116E+02  0.28505270896E+02  0.57354840373E+02  0.00000000000E+00 0. -1.
      -12    1    3    3    0    0 -0.21719241627E+02  0.44780596116E+02  0.95959089954E+02  0.10809798421E+03  0.00000000000E+00 0.  1.
</event>
<event>
 5   0  0.2413800E+01  0.8085056E+02  0.7957747E-01  0.1325294E+00
        3   -1    0    0  501    0  0.00000000000E+00  0.00000000000E+00  0.17563948950E+02  0.17563948950E+02  0.00000000000E+00 0. -1.
       -4   -1    0    0    0  501  0.00000000000E+00  0.00000000000E+00 -0.93043043139E+02  0.93043043139E+02  0.00000000000E+00 0.  1.
      -24    2    1    2    0    0  0.00000000000E+00  0.00000000000E+00 -0.75479094188E+02  0.11060699209E+03  0.80850559921E+02 0.  0.
       11    1    3    3    0    0 -0.16129573160E+02 -0.28269833512E+02 -0.49391329502E+01  0.32920231643E+02  0.00000000000E+00 0. -1.
      -12    1    3    3    0    0  0.16129573160E+02  0.28269833512E+02 -0.70539961238E+02  0.77686760446E+02  0.00000000000E+00 0.  1.
</event>
<event>
 5   0  0.2413800E+01  0.8016959E+02  0.7957747E-01  0.1327110E+00
       -2   -1    0    0    0  501  0.00000000000E+00  0.00000000000E+00  0.33865420107E+03  0.33865420107E+03  0.00000000000E+00 0.  1.
        1   -1    0    0  501    0  0.00000000000E+00  0.00000000000E+00 -0.47446354970E+01  0.47446354970E+01  0.00000000000E+00 0. -1.
      -24    2    1    2    0    0  0.00000000000E+00  0.00000000000E+00  0.33390956557E+03  0.34339883657E+03  0.80169588837E+02 0.  0.
       11    1    3    3    0    0 -0.19055447307E+02  0.51341895794E+01  0.17506241981E+02  0.26380645993E+02  0.00000000000E+00 0. -1.
      -12    1    3    3    0    0  0.19055447307E+02 -0.51341895794E+01  0.31640332359E+03  0.31701819057E+03  0.00000000000E+00 0.  1.
</event>
<event>
 5   0  0.2413800E+01  0.8029778E+02  0.7957747E-01  0.1326766E+00
        1   -1    0    0  501    0  0.00000000000E+00  0.00000000000E+00  0.13412063708E+03  0.13412063708E+03  0.00000000000E+00 0. -1.
       -2   -1    0    0    0  501  0.00000000000E+00  0.00000000000E+00 -0.12018532464E+02  0.12018532464E+02  0.00000000000E+00 0.  1.
      -24    2    1    2    0    0  0.00000000000E+00  0.00000000000E+00  0.12210210462E+03  0.14613916955E+03  0.80297776580E+02 0.  0.
       11    1    3    3    0    0 -0.33244011795E+02 -0.20265738682E+02  0.78889381612E+02  0.87973854160E+02  0.00000000000E+00 0. -1.
      -12    1    3    3    0    0  0.33244011795E+02  0.20265738682E+02  0.43212723006E+02  0.58165315388E+02  0.00000000000E+00 0.  1.
</event>
<event>
 5   0  0.2413800E+01  0.7785825E+02  0.7957747E-01  0.1333426E+00
        1   -1    0    0  501    0  0.00000000000E+00  0.00000000000E+00  0.13322258200E+02  0.13322258200E+02  0.00000000000E+00 0. -1.
       -2   -1    0    0    0  501  0.00000000000E+00  0.00000000000E+00 -0.11375525812E+03  0.11375525812E+03  0.00000000000E+00 0.  1.
      -24    2    1    2    0    0  0.00000000000E+00  0.00000000000E+00 -0.10043299992E+03  0.12707751632E+03  0.77858253777E+02 0.  0.
       11    1    3    3    0    0 -0.19166100383E+02 -0.22785320039E+02 -0.92830935019E+01  0.31187914938E+02  0.00000000000E+00 0. -1.
      -12    1    3    3    0    0  0.19166100383E+02  0.22785320039E+02 -0.91149906422E+02  0.95889601385E+02  0.00000000000E+00 0.  1.
</event>
<event>
 5   0  0.2413800E+01  0.8143274E+02  0.7957747E-01  0.1323758E+00
       -4   -1    0    0    0  501  0.00000000000E+00  0.00000000000E+00  0.30417795730E+03  0.30417795730E+03  0.00000000000E+00 0.  1.
        3   -1    0    0  501    0  0.00000000000E+00  0.00000000000E+00 -0.54501738852E+01  0.54501738852E+01  0.00000000000E+00 0. -1.
      -24    2    1    2    0    0  0.00000000000E+00  0.00000000000E+00  0.29872778342E+03  0.30962813119E+03  0.81432739346E+02 0.  0.
       11    1    3    3    0    0  0.37948716352E+02 -0.15594729071E+01  0.93574838648E+02  0.10098904622E+03  0.00000000000E+00 0. -1.
      -12    1    3    3    0    0 -0.37948716352E+02  0.15594729071E+01  0.20515294477E+03  0.20863908497E+03  0.00000000000E+00 0.  1.
</event>
<event>
 5   0  0.2413800E+01  0.8035053E+02  0.7957747E-01  0.1326625E+00
        1   -1    0    0  501    0  0.00000000000E+00  0.00000000000E+00  0.14083645779E+02  0.14083645779E+02  0.00000000000E+00 0. -1.
       -2   -1    0    0    0  501  0.00000000000E+00  0.00000000000E+00 -0.11460469758E+03  0.11460469758E+03  0.00000000000E+00 0.  1.
      -24    2    1    2    0    0  0.00000000000E+00  0.00000000000E+00 -0.10052105180E+03  0.12868834336E+03  0.80350531182E+02 0.  0.
       11    1    3    3    0    0 -0.14135190428E+01 -0.38303030835E+02 -0.69541645039E+02  0.79405041414E+02  0.00000000000E+00 0. -1.
      -12    1    3    3    0    0  0.14135190428E+01  0.38303030835E+02 -0.30979406764E+02  0.49283301946E+02  0.00000000000E+00 0.  1.
</event>
<event>
 5   0  0.2413800E+01  0.8017204E+02  0.7957747E-01  0.1327103E+00
        3   -1    0    0  501    0  0.00000000000E+00  0.00000000000E+00  0.45709868756E+01  0.45709868756E+01  0.00000000000E+00 0. -1.
       -4   -1    0    0    0  501  0.00000000000E+00  0.00000000000E+00 -0.35154093251E+03  0.35154093251E+03  0.00000000000E+00 0.  1.
      -24    2    1    2    0    0  0.00000000000E+00  0.00000000000E+00 -0.34696994564E+03  0.35611191939E+03  0.80172039733E+02 0.  0.
       11    1    3    3    0    0 -0.25770803790E+02  0.27607584385E+02 -0.11379607967E+03  0.11989937778E+03  0.00000000000E+00 0. -1.
      -12    1    3    3    0    0  0.25770803790E+02 -0.27607584385E+02 -0.23317386596E+03  0.23621254161E+03  0.00000000000E+00 0.  1.
</event>
<event>
 5   0  0.2413800E+01  0.8063511E+02  0.7957747E-01  0.1325866E+00
       -2   -1    0    0    0  501  0.00000000000E+00  0.00000000000E+00  0.23056256627E+03  0.23056256627E+03  0.00000000000E+00 0.  1.
        1   -1    0    0  501    0  0.00000000000E+00  0.00000000000E+00 -0.70501692498E+01  0.70501692498E+01  0.00000000000E+00 0. -1.
      -24    2    1    2    0    0  0.00000000000E+00  0.00000000000E+00  0.22351239702E+03  0.23761273552E+03  0.80635106868E+02 0.  0.
       11    1    3    3    0    0 -0.12028205709E+02 -0.20525962882E+02  0.15838547304E+02  0.28580630950E+02  0.00000000000E+00 0. -1.
      -12    1    3    3    0    0  0.12028205709E+02  0.20525962882E+02  0.20767384972E+03  0.20903210457E+03  0.00000000000E+00 0.  1.
</event>
<event>
 5   0  0.2413800E+01  0.7884134E+02  0.7957747E-01  0.1330710E+00
        1   -1    0    0  501    0  0.00000000000E+00  0.00000000000E+00  0.87783903623E+01  0.87783903623E+01  0.00000000000E+00 0. -1.
       -2   -1    0    0    0  501  0.00000000000E+00  0.00000000000E+00 -0.17702438076E+03  0.17702438076E+03  0.00000000000E+00 0.  1.
      -24    2    1    2    0    0  0.00000000000E+00  0.00000000000E+00 -0.16824599040E+03  0.18580277113E+03  0.78841337330E+02 0.  0.
       11    1    3    3    0    0  0.34618866561E+02  0.14333231469E+02 -0.55251981431E+02  0.66758436907E+02  0.00000000000E+00 0. -1.
      -12    1    3    3    0    0 -0.34618866561E+02 -0.14333231469E+02 -0.11299400897E+03  0.11904433422E+03  0.00000000000E+00 0.  1.
</event>
<event>
 5   0  0.2413800E+01  0.8083505E+02  0.7957747E-01  0.1325335E+00
        3   -1    0    0  501    0  0.00000000000E+00  0.00000000000E+00  0.30382184521E+03  0.30382184521E+03  0.00000000000E+00 0. -1.
       -4   -1    0    0    0  501  0.00000000000E+00  0.00000000000E+00 -0.53767570573E+01  0.53767570573E+01  0.00000000000E+00 0.  1.
      -24    2    1    2    0    0  0.00000000000E+00  0.00000000000E+00  0.29844508815E+03  0.30919860227E+03  0.80835048102E+02 0.  0.
       11    1    3    3    0    0 -0.38927135609E+02 -0.41491768920E+01  0.18767124624E+03  0.19171080882E+03  0.00000000000E+00 0. -1.
      -12    1    3    3    0    0  0.38927135609E+02  0.41491768920E+01  0.11077384192E+03  0.11748779344E+03  0.00000000000E+00 0.  1.
</event>
<event>
 5   0  0.2413800E+01  0.8090331E+02  0.7957747E-01  0.1325155E+00
       -2   -1    0    0    0  501  0.00000000000E+00  0.00000000000E+00  0.91969212555E+02  0.91969212555E+02  0.00000000000E+00 0.  1.
        1   -1    0    0  501    0  0.00000000000E+00  0.00000000000E+00 -0.17792219243E+02  0.17792219243E+02  0.00000000000E+00 0. -1.
      -24    2    1    2    0    0  0.00000000000E+00  0.00000000000E+00  0.74176993312E+02  0.10976143180E+03  0.80903310029E+02 0.  0.
       11    1    3    3    0    0 -0.19217187979E+02  0.26044205510E+02  0.41697294521E+01  0.32634147732E+02  0.00000000000E+00 0. -1.
      -12    1    3    3    0    0  0.19217187979E+02 -0.26044205510E+02  0.70007263860E+02  0.77127284067E+02  0.00000000000E+00 0.  1.
</event>
<event>
 5   0  0.2413800E+01  0.7804206E+02  0.7957747E-01  0.1332915E+00
       -2   -1    0    0    0  501  0.00000000000E+00  0.00000000000E+00  0.13773346787E+02  0.13773346787E+02  0.00000000000E+00 0.  1.
        1   -1    0    0  501    0  0.00000000000E+00  0.00000000000E+00 -0.11054979970E+03  0.11054979970E+03  0.00000000000E+00 0. -1.
      -24    2    1    2    0    0  0.00000000000E+00  0.00000000000E+00 -0.96776452915E+02  0.12432314649E+03  0.78042058624E+02 0.  0.
       11    1    3    3    0    0 -0.31280159069E+02  0.13236287615E+02 -0.78988998217E+02  0.85982030103E+02  0.00000000000E+00 0. -1.
      -12    1    3    3    0    0  0.31280159069E+02 -0.13236287615E+02 -0.17787454698E+02  0.38341116387E+02  0.00000000000E+00 0.  1.
</event>
<event>
 5   0  0.2413800E+01  0.8480234E+02  0.7957747E-01  0.1315145E+00
        1   -1    0    0  501    0  0.00000000000E+00  0.00000000000E+00  0.19437143410E+02  0.19437143410E+02  0.00000000000E+00 0. -1.
       -2   -1    0    0    0  501  0.00000000000E+00  0.00000000000E+00 -0.92496065893E+02  0.92496065893E+02  0.00000000000E+00 0.  1.
      -24    2    1    2    0    0  0.00000000000E+00  0.00000000000E+00 -0.73058922482E+02  0.11193320930E+03  0.84802341894E+02 0.  0.
       11    1    3    3    0    0 -0.90971460984E+01 -0.40950179466E+02 -0.28373183539E+02  0.50642993686E+02  0.00000000000E+00 0. -1.
      -12    1    3    3    0    0  0.90971460984E+01  0.40950179466E+02 -0.44685738944E+02  0.61290215617E+02  0.00000000000E+00 0.  1.
</event>
<event>
 5   0  0.2413800E+01  0.8339453E+02  0.7957747E-01  0.1318688E+00
       -4   -1    0    0    0  501  0.00000000000E+00  0.00000000000E+00  0.12125388440E+02  0.12125388440E+02  0.00000000000E+00 0.  1.
        3   -1    0    0  501    0  0.00000000000E+00  0.00000000000E+00 -0.14339018722E+03  0.14339018722E+03  0.00000000000E+00 0. -1.
      -24    2    1    2    0    0  0.00000000000E+00  0.00000000000E+00 -0.13126479878E+03  0.15551557566E+03  0.83394525443E+02 0.  0.
       11    1    3    3    0    0 -0.39202643159E+02  0.14201164027E+02 -0.64931098786E+02  0.77165846589E+02  0.00000000000E+00 0. -1.
      -12    1    3    3    0    0  0.39202643159E+02 -0.14201164027E+02 -0.66333699992E+02  0.78349729068E+02  0.00000000000E+00 0.  1.
</event>
<event>
 5   0  0.2413800E+01  0.8092634E+02  0.7957747E-01  0.1325094E+00
       -2   -1    0    0    0  501  0.00000000000E+00  0.00000000000E+00  0.44815927244E+02  0.44815927244E+02  0.00000000000E+00 0.  1.
        1   -1    0    0  501    0  0.00000000000E+00  0.00000000000E+00 -0.36533172911E+02  0.36533172911E+02  0.00000000000E+00 0. -1.
      -24    2    1    2    0    0  0.00000000000E+00  0.00000000000E+00  0.82827543323E+01  0.81349100155E+02  0.80926337349E+02 0.  0.
       11    1    3    3    0    0  0.10144965260E+02  0.29057997937E+02 -0.22263324356E+02  0.37986091871E+02  0.00000000000E+00 0. -1.
      -12    1    3    3    0    0 -0.10144965260E+02 -0.29057997937E+02  0.30546078689E+02  0.43363008284E+02  0.00000000000E+00 0.  1.
</event>
<event>
 5   0  0.2413800E+01  0.7975478E+02  0.7957747E-01  0.1328225E+00
        1   -1    0    0  501    0  0.00000000000E+00  0.00000000000E+00  0.15048187430E+02  0.15048187430E+02  0.00000000000E+00 0. -1.
       -2   -1    0    0    0  501  0.00000000000E+00  0.00000000000E+00 -0.10567425836E+03  0.10567425836E+03  0.00000000000E+00 0.  1.
      -24    2    1    2    0    0  0.00000000000E+00  0.00000000000E+00 -0.90626070931E+02  0.12072244579E+03  0.79754775314E+02 0.  0.
       11    1    3    3    0    0 -0.61334571554E+01  0.22588724138E+02  0.35561678616E+01  0.23675220901E+02  0.00000000000E+00 0. -1.
      -12    1    3    3    0    0  0.61334571554E+01 -0.22588724138E+02 -0.94182238792E+02  0.97047224890E+02  0.00000000000E+00 0.  1.
</event>
<event>
 5   0  0.2413800E+01  0.7940149E+02  0.7957747E-01  0.1329182E+00
       -4   -1    0    0    0  501  0.00000000000E+00  0.00000000000E+00  0.76874078521E+01  0.76874078521E+01  0.00000000000E+00 0.  1.
        3   -1    0    0  501    0  0.00000000000E+00  0.00000000000E+00 -0.20502999659E+03  0.20502999659E+03  0.00000000000E+00 0. -1.
      -24    2    1    2    0    0  0.00000000000E+00  0.00000000000E+00 -0.19734258874E+03  0.21271740444E+03  0.79401491314E+02 0.  0.
       11    1    3    3    0    0 -0.27087203853E+02 -0.92599070178E+01 -0.17236534364E+03  0.17472628360E+03  0.00000000000E+00 0. -1.
      -12    1    3    3    0    0  0.27087203853E+02  0.92599070178E+01 -0.24977245096E+02  0.37991120846E+02  0.00000000000E+00 0.  1.
</event>
<event>
 5   0  0.2413800E+01  0.8005817E+02  0.7957747E-01  0.1327408E+00
       -2   -1    0    0    0  501  0.00000000000E+00  0.00000000000E+00  0.59638439249E+01  0.59638439249E+01  0.00000000000E+00 0.  1.
        1   -1    0    0  501    0  0.00000000000E+00  0.00000000000E+00 -0.26867366321E+03  0.26867366321E+03  0.00000000000E+00 0. -1.
      -24    2    1    2    0    0  0.00000000000E+00  0.00000000000E+00 -0.26270981928E+03  0.27463750713E+03  0.80058173701E+02 0.  0.
       11    1    3    3    0    0 -0.39410176584E+02 -0.27531070394E+01 -0.15347712778E+03  0.15848018920E+03  0.00000000000E+00 0. -1.
      -12    1    3    3    0    0  0.39410176584E+02  0.27531070394E+01 -0.10923269150E+03  0.11615731793E+03  0.00000000000E+00 0.  1.
</event>
<event>
 5   0  0.2413800E+01  0.7995066E+02  0.7957747E-01  0.1327697E+00
        1   -1    0    0  501    0  0.00000000000E+00  0.00000000000E+00  0.76569525166E+02  0.76569525166E+02  0.00000000000E+00 0. -1.
       -2   -1    0    0    0  501  0.00000000000E+00  0.00000000000E+00 -0.20870272586E+02  0.20870272586E+02  0.00000000000E+00 0.  1.
      -24    2    1    2    0    0  0.00000000000E+00  0.00000000000E+00  0.55699252581E+02  0.97439797752E+02  0.79950656332E+02 0.  0.
       11    1    3    3    0    0  0.14405579546E+02 -0.36652803181E+02  0.36211894173E+02  0.53499999838E+02  0.00000000000E+00 0. -1.
      -12    1    3    3    0    0 -0.14405579546E+02  0.36652803181E+02  0.19487358408E+02  0.43939797915E+02  0.00000000000E+00 0.  1.
</event>
<event>
 5   0  0.2413800E+01  0.8174714E+02  0.7957747E-01  0.1322935E+00
       -2   -1    0    0    0  501  0.00000000000E+00  0.00000000000E+00  0.20336433003E+02  0.20336433003E+02  0.00000000000E+00 0.  1.
        1   -1    0    0  501    0  0.00000000000E+00  0.00000000000E+00 -0.82150535993E+02  0.82150535993E+02  0.00000000000E+00 0. -1.
      -24    2    1    2    0    0  0.00000000000E+00  0.00000000000E+00 -0.61814102990E+02  0.10248696900E+03  0.81747143593E+02 0.  0.
       11    1    3    3    0    0  0.23024961611E+02 -0.70304609671E+01 -0.72318735751E+02  0.76220573202E+02  0.00000000000E+00 0. -1.
      -12    1    3    3    0    0 -0.23024961611E+02  0.70304609671E+01  0.10504632761E+02  0.26266395795E+02  0.00000000000E+00 0.  1.
</event>
<event>
 5   0  0.2413800E+01  0.8067443E+02  0.7957747E-01  0.1325762E+00
       -2   -1    0    0    0  501  0.00000000000E+00  0.00000000000E+00  0.51281924412E+02  0.51281924412E+02  0.00000000000E+00 0.  1.
        1   -1    0    0  501    0  0.00000000000E+00  0.00000000000E+00 -0.31728348748E+02  0.31728348748E+02  0.00000000000E+00 0. -1.
      -24    2    1    2    0    0  0.00000000000E+00  0.00000000000E+00  0.19553575664E+02  0.83010273159E+02  0.80674426733E+02 0.  0.
       11    1    3    3    0    0  0.36821912092E+02 -0.13259044044E+02 -0.27516701511E+00  0.39137337364E+02  0.00000000000E+00 0. -1.
      -12    1    3    3    0    0 -0.36821912092E+02  0.13259044044E+02  0.19828742679E+02  0.43872935795E+02  0.00000000000E+00 0.  1.
</event>
<event>
 5   0  0.2413800E+01  0.8141296E+02  0.7957747E-01  0.1323810E+00
        3   -1    0    0  501    0  0.00000000000E+00  0.00000000000E+00  0.29114542456E+03  0.29114542456E+03  0.00000000000E+00 0. -1.
       -4   -1    0    0    0  501  0.00000000000E+00  0.00000000000E+00 -0.56913746405E+01  0.56913746405E+01  0.00000000000E+00 0.  1.
      -24    2    1    2    0    0  0.00000000000E+00  0.00000000000E+00  0.28545404992E+03  0.29683679921E+03  0.81412964227E+02 0.  0.
       11    1    3    3    0    0 -0.24340004545E+02  0.27779639097E+02  0.20512409875E+03  0.20842274362E+03  0.00000000000E+00 0. -1.
      -12    1    3    3    0    0  0.24340004545E+02 -0.27779639097E+02  0.80329951175E+02  0.88414055587E+02  0.00000000000E+00 0.  1.
</event>
<event>
 5   0  0.2413800E+01  0.7918568E+02  0.7957747E-01  0.1329769E+00
        3   -1    0    0  501    0  0.00000000000E+00  0.00000000000E+00  0.98093102677E+02  0.98093102677E+02  0.00000000000E+00 0. -1.
       -4   -1    0    0    0  501  0.00000000000E+00  0.00000000000E+00 -0.15980665927E+02  0.15980665927E+02  0.00000000000E+00 0.  1.
      -24    2    1    2    0    0  0.00000000000E+00  0.00000000000E+00  0.82112436750E+02  0.11407376860E+03  0.79185683141E+02 0.  0.
       11    1    3    3    0    0  0.38201256224E+02  0.98081791689E+01  0.46058339604E+02  0.60637504919E+02  0.00000000000E+00 0. -1.
      -12    1    3    3    0    0 -0.38201256224E+02 -0.98081791689E+01  0.36054097146E+02  0.53436263686E+02  0.00000000000E+00 0.  1.
</event>
<event>
 5   0  0.2413800E+01  0.7955757E+02  0.7957747E-01  0.1328758E+00
       -2   -1    0    0    0  501  0.00000000000E+00  0.00000000000E+00  0.14139180686E+03  0.14139180686E+03  0.00000000000E+00 0.  1.
        1   -1    0    0  501    0  0.00000000000E+00  0.00000000000E+00 -0.11191254577E+02  0.11191254577E+02  0.00000000000E+00 0. -1.
      -24    2    1    2    0    0  0.00000000000E+00  0.00000000000E+00  0.13020055229E+03  0.15258306144E+03  0.79557569238E+02 0.  0.
       11    1    3    3    0    0  0.30609512660E+02  0.37473873481E+01  0.16909314118E+02  0.35169732458E+02  0.00000000000E+00 0. -1.
      -12    1    3    3    0    0 -0.30609512660E+02 -0.37473873481E+01  0.11329123817E+03  0.11741332898E+03  0.00000000000E+00 0.  1.
</event>
<event>
 5   0  0.2413800E+01  0.7809537E+02  0.7957747E-01  0.1332767E+00
        1   -1    0    0  501    0  0.00000000000E+00  0.00000000000E+00  0.26974693862E+02  0.26974693862E+02  0.00000000000E+00 0. -1.
       -2   -1    0    0    0  501  0.00000000000E+00  0.00000000000E+00 -0.56524154133E+02  0.56524154133E+02  0.00000000000E+00 0.  1.
      -24    2    1    2    0    0  0.00000000000E+00  0.00000000000E+00 -0.29549460271E+02  0.83498847995E+02  0.78095371273E+02 0.  0.
       11    1    3    3    0    0 -0.29250862552E+02  0.17855948375E+02 -0.34785282616E+02  0.48830971106E+02  0.00000000000E+00 0. -1.
      -12    1    3    3    0    0  0.29250862552E+02 -0.17855948375E+02  0.52358223454E+01  0.34667876890E+02  0.00000000000E+00 0.  1.
</event>
<event>
 5   0  0.2413800E+01  0.7937436E+02  0.7957747E-01  0.1329255E+00
       -2   -1    0    0    0  501  0.00000000000E+00  0.00000000000E+00  0.15100899512E+03  0.15100899512E+03  0.00000000000E+00 0.  1.
        1   -1    0    0  501    0  0.00000000000E+00  0.00000000000E+00 -0.10430320491E+02  0.10430320491E+02  0.00000000000E+00 0. -1.
      -24    2    1    2    0    0  0.00000000000E+00  0.00000000000E+00  0.14057867463E+03  0.16143931561E+03  0.79374358986E+02 0.  0.
       11    1    3    3    0    0 -0.24131642722E+02  0.71716046797E+01  0.78879770220E+01  0.26381589710E+02  0.00000000000E+00 0. -1.
      -12    1    3    3    0    0  0.24131642722E+02 -0.71716046797E+01  0.13269069761E+03  0.13505772590E+03  0.00000000000E+00 0.  1.
</event>
<event>
 5   0  0.2413800E+01  0.7948374E+02  0.7957747E-01  0.1328959E+00
       -2   -1    0    0    0  501  0.00000000000E+00  0.00000000000E+00  0.10593971981E+03  0.10593971981E+03  0.00000000000E+00 0.  1.
        1   -1    0    0  501    0  0.00000000000E+00  0.00000000000E+00 -0.14908631001E+02  0.14908631001E+02  0.00000000000E+00 0. -1.
      -24    2    1    2    0    0  0.00000000000E+00  0.00000000000E+00  0.91031088808E+02  0.12084835081E+03  0.79483738990E+02 0.  0.
       11    1    3    3    0    0 -0.36788443221E+02  0.12044194454E+02  0.31834839937E+02  0.50118950592E+02  0.00000000000E+00 0. -1.
      -12    1    3    3    0    0  0.36788443221E+02 -0.12044194454E+02  0.59196248872E+02  0.70729400218E+02  0.00000000000E+00 0.  1.
</event>
<event>
 5   0  0.2413800E+01  0.8132767E+02  0.7957747E-01  0.1324035E+00
        1   -1    0    0  501    0  0.00000000000E+00  0.00000000000E+00  0.16317642410E+03  0.16317642410E+03  0.00000000000E+00 0. -1.
       -2   -1    0    0    0  501  0.00000000000E+00  0.00000000000E+00 -0.10133494748E+02  0.10133494748E+02  0.00000000000E+00 0.  1.
      -24    2    1    2    0    0  0.00000000000E+00  0.00000000000E+00  0.15304292935E+03  0.17330991884E+03  0.81327669007E+02 0.  0.
       11    1    3    3    0    0  0.24606380878E+01 -0.25634952747E+02  0.14358364510E+03  0.14587483910E+03  0.00000000000E+00 0. -1.
      -12    1    3    3    0    0 -0.24606380878E+01  0.25634952747E+02  0.94592842495E+01  0.27435079745E+02  0.00000000000E+00 0.  1.
</event>
<event>
 5   0  0.2413800E+01  0.6986487E+02  0.7957747E-01  0.1357350E+00
        3   -1    0    0  501    0  0.00000000000E+00  0.00000000000E+00  0.46704077417E+01  0.46704077417E+01  0.00000000000E+00 0. -1.
       -4   -1    0    0    0  501  0.00000000000E+00  0.00000000000E+00 -0.26127804752E+03  0.26127804752E+03  0.00000000000E+00 0.  1.
      -24    2    1    2    0    0  0.00000000000E+00  0.00000000000E+00 -0.25660763977E+03  0.26594845526E+03  0.69864870024E+02 0.  0.
       11    1    3    3    0    0  0.23227251929E+02 -0.25944381586E+02 -0.11776916442E+03  0.12280957722E+03  0.00000000000E+00 0. -1.
      -12    1    3    3    0    0 -0.23227251929E+02  0.25944381586E+02 -0.13883847535E+03  0.14313887804E+03  0.00000000000E+00 0.  1.
</event>
<event>
 5   0  0.2413800E+01  0.8132601E+02  0.7957747E-01  0.1324039E+00
        1   -1    0    0  501    0  0.00000000000E+00  0.00000000000E+00  0.17940768624E+02  0.17940768624E+02  0.00000000000E+00 0. -1.
       -2   -1    0    0    0  501  0.00000000000E+00  0.00000000000E+00 -0.92163271602E+02  0.92163271602E+02  0.00000000000E+00 0.  1.
      -24    2    1    2    0    0  0.00000000000E+00  0.00000000000E+00 -0.74222502978E+02  0.11010404023E+03  0.81326008914E+02 0.  0.
       11    1    3    3    0    0 -0.36324756652E+02  0.80929992330E+01 -0.14927132839E+02  0.40097429808E+02  0.00000000000E+00 0. -1.
      -12    1    3    3    0    0  0.36324756652E+02 -0.80929992330E+01 -0.59295370139E+02  0.70006610419E+02  0.00000000000E+00 0.  1.
</event>
<event>
 5   0  0.2413800E+01  0.7990793E+02  0.7957747E-01  0.1327812E+00
       -2   -1    0    0    0  501  0.00000000000E+00  0.00000000000E+00  0.84654805847E+01  0.84654805847E+01  0.00000000000E+00 0.  1.
        1   -1    0    0  501    0  0.00000000000E+00  0.00000000000E+00 -0.18856805178E+03  0.18856805178E+03  0.00000000000E+00 0. -1.
      -24    2    1    2    0    0  0.00000000000E+00  0.00000000000E+00 -0.18010257120E+03  0.19703353237E+03  0.79907926547E+02 0.  0.
       11    1    3    3    0    0  0.19344909202E+01 -0.39749763594E+02 -0.81321941373E+02  0.90537528735E+02  0.00000000000E+00 0. -1.
      -12    1    3    3    0    0 -0.19344909202E+01  0.39749763594E+02 -0.98780629823E+02  0.10649600363E+03  0.00000000000E+00 0.  1.
</event>
<event>
 5   0  0.2413800E+01  0.8237989E+02  0.7957747E-01  0.1321290E+00
        1   -1    0    0  501    0  0.00000000000E+00  0.00000000000E+00  0.19443337451E+03  0.19443337451E+03  0.00000000000E+00 0. -1.
       -2   -1    0    0    0  501  0.00000000000E+00  0.00000000000E+00 -0.87259269747E+01  0.87259269747E+01  0.00000000000E+00 0.  1.
      -24    2    1    2    0    0  0.00000000000E+00  0.00000000000E+00  0.18570744754E+03  0.20315930149E+03  0.82379886561E+02 0.  0.
       11    1    3    3    0    0  0.15661820513E+02  0.29519183363E+02  0.15224269300E+03  0.15586697014E+03  0.00000000000E+00 0. -1.
      -12    1    3    3    0    0 -0.15661820513E+02 -0.29519183363E+02  0.33464754540E+02  0.47292331351E+02  0.00000000000E+00 0.  1.
</event>
<event>
 5   0  0.2413800E+01  0.8071158E+02  0.7957747E-01  0.1325663E+00
       -2   -1    0    0    0  501  0.00000000000E+00  0.00000000000E+00  0.15882464584E+03  0.15882464584E+03  0.00000000000E+00 0.  1.
        1   -1    0    0  501    0  0.00000000000E+00  0.00000000000E+00 -0.10254012687E+02  0.10254012687E+02  0.00000000000E+00 0. -1.
      -24    2    1    2    0    0  0.00000000000E+00  0.00000000000E+00  0.14857063315E+03  0.16907865853E+03  0.80711583642E+02 0.  0.
       11    1    3    3    0    0 -0.11190071229E+02  0.18121081723E+02  0.24775190860E+01  0.21441301213E+02  0.00000000000E+00 0. -1.
      -12    1    3    3    0    0  0.11190071229E+02 -0.18121081723E+02  0.14609311407E+03  0.14763735732E+03  0.00000000000E+00 0.  1.
</event>
<event>
 5   0  0.2413800E+01  0.7934737E+02  0.7957747E-01  0.1329329E+00
        3   -1    0    0  501    0  0.00000000000E+00  0.00000000000E+00  0.19877102523E+02  0.19877102523E+02  0.00000000000E+00 0. -1.
       -4   -1    0    0    0  501  0.00000000000E+00  0.00000000000E+00 -0.79186656664E+02  0.79186656664E+02  0.00000000000E+00 0.  1.
      -24    2    1    2    0    0  0.00000000000E+00  0.00000000000E+00 -0.59309554141E+02  0.99063759187E+02  0.79347370290E+02 0.  0.
       11    1    3    3    0    0  0.29618903330E+02  0.12945216307E+02 -0.93580511836E+00  0.32337807454E+02  0.00000000000E+00 0. -1.
      -12    1    3    3    0    0 -0.29618903330E+02 -0.12945216307E+02 -0.58373749022E+02  0.66725951733E+02  0.00000000000E+00 0.  1.
</event>
<event>
 5   0  0.2413800E+01  0.7730604E+02  0.7957747E-01  0.1334972E+00
       -4   -1    0    0    0  501  0.00000000000E+00  0.00000000000E+00  0.60269889602E+02  0.60269889602E+02  0.00000000000E+00 0.  1.
        3   -1    0    0  501    0  0.00000000000E+00  0.00000000000E+00 -0.24789424086E+02  0.24789424086E+02  0.00000000000E+00 0. -1.
      -24    2    1    2    0    0  0.00000000000E+00  0.00000000000E+00  0.35480465515E+02  0.85059313688E+02  0.77306037357E+02 0.  0.
       11    1    3    3    0    0  0.26094434259E+02 -0.17009649423E+02 -0.74420212450E+01  0.32025479747E+02  0.00000000000E+00 0. -1.
      -12    1    3    3    0    0 -0.26094434259E+02  0.17009649423E+02  0.42922486760E+02  0.53033833941E+02  0.00000000000E+00 0.  1.
</event>
<event>
 5   0  0.2413800E+01  0.7675471E+02  0.7957747E-01  0.1336531E+00
       -2   -1    0    0    0  501  0.00000000000E+00  0.00000000000E+00  0.32147192807E+03  0.32147192807E+03  0.00000000000E+00 0.  1.
        1   -1    0    0  501    0  0.00000000000E+00  0.00000000000E+00 -0.45814928293E+01  0.45814928293E+01  0.00000000000E+00 0. -1.
      -24    2    1    2    0    0  0.00000000000E+00  0.00000000000E+00  0.31689043525E+03  0.32605342090E+03  0.76754708867E+02 0.  0.
       11    1    3    3    0    0 -0.96403131380E+01 -0.33781777382E+02  0.92817211311E+02  0.99243029156E+02  0.00000000000E+00 0. -1.
      -12    1    3    3    0    0  0.96403131380E+01  0.33781777382E+02  0.22407322393E+03  0.22681039175E+03  0.00000000000E+00 0.  1.
</event>
<event>
 5   0  0.2413800E+01  0.7940787E+02  0.7957747E-01  0.1329164E+00
       -2   -1    0    0    0  501  0.00000000000E+00  0.00000000000E+00  0.22221508148E+02  0.22221508148E+02  0.00000000000E+00 0.  1.
        1   -1    0    0  501    0  0.00000000000E+00  0.00000000000E+00 -0.70940383871E+02  0.70940383871E+02  0.00000000000E+00 0. -1.
      -24    2    1    2    0    0  0.00000000000E+00  0.00000000000E+00 -0.48718875723E+02  0.93161892019E+02  0.79407866568E+02 0.  0.
       11    1    3    3    0    0 -0.37206200127E+02  0.11247884109E+02 -0.14858189872E+02  0.41612282214E+02  0.00000000000E+00 0. -1.
      -12    1    3    3    0    0  0.37206200127E+02 -0.11247884109E+02 -0.33860685851E+02  0.51549609806E+02  0.00000000000E+00 0.  1.
</event>
<event>
 5   0  0.2413800E+01  0.7856711E+02  0.7957747E-01  0.1331463E+00
       -2   -1    0    0    0  501  0.00000000000E+00  0.00000000000E+00  0.14824132362E+02  0.14824132362E+02  0.00000000000E+00 0.  1.
        1   -1    0    0  501    0  0.00000000000E+00  0.00000000000E+00 -0.10410038139E+03  0.10410038139E+03  0.00000000000E+00 0. -1.
      -24    2    1    2    0    0  0.00000000000E+00  0.00000000000E+00 -0.89276249023E+02  0.11892451375E+03  0.78567113543E+02 0.  0.
       11    1    3    3    0    0  0.14776828330E+02  0.29351683618E+02 -0.77219692083E+02  0.83921134597E+02  0.00000000000E+00 0. -1.
      -12    1    3    3    0    0 -0.14776828330E+02 -0.29351683618E+02 -0.12056556941E+02  0.35003379151E+02  0.00000000000E+00 0.  1.
</event>
<event>
 5   0  0.2413800E+01  0.7953747E+02  0.7957747E-01  0.1328813E+00
       -2   -1    0    0    0  501  0.00000000000E+00  0.00000000000E+00  0.30397959954E+02  0.30397959954E+02  0.00000000000E+00 0.  1.
        1   -1    0    0  501    0  0.00000000000E+00  0.00000000000E+00 -0.52028236703E+02  0.52028236703E+02  0.00000000000E+00 0. -1.
      -24    2    1    2    0    0  0.00000000000E+00  0.00000000000E+00 -0.21630276749E+02  0.82426196657E+02  0.79537469303E+02 0.  0.
       11    1    3    3    0    0 -0.26384583744E+02 -0.28453088347E+02 -0.17909613638E+01  0.38844974430E+02  0.00000000000E+00 0. -1.
      -12    1    3    3    0    0  0.26384583744E+02  0.28453088347E+02 -0.19839315385E+02  0.43581222227E+02  0.00000000000E+00 0.  1.
</event>
<event>
 5   0  0.2413800E+01  0.8174603E+02  0.7957747E-01  0.1322938E+00
        1   -1    0    0  501    0  0.00000000000E+00  0.00000000000E+00  0.44106901572E+01  0.44106901572E+01  0.00000000000E+00 0. -1.
       -2   -1    0    0    0  501  0.00000000000E+00  0.00000000000E+00 -0.37876231874E+03  0.37876231874E+03  0.00000000000E+00 0.  1.
      -24    2    1    2    0    0  0.00000000000E+00  0.00000000000E+00 -0.37435162858E+03  0.38317300890E+03  0.81746026966E+02 0.  0.
       11    1    3    3    0    0  0.27001994567E+01 -0.35060813379E+02 -0.89519822409E+02  0.96178741497E+02  0.00000000000E+00 0. -1.
      -12    1    3    3    0    0 -0.27001994567E+01  0.35060813379E+02 -0.28483180617E+03  0.28699426740E+03  0.00000000000E+00 0.  1.
</event>
<event>
 5   0  0.2413800E+01  0.7867977E+02  0.7957747E-01  0.1331153E+00
        1   -1    0    0  501    0  0.00000000000E+00  0.00000000000E+00  0.65032178849E+01  0.65032178849E+01  0.00000000000E+00 0. -1.
       -2   -1    0    0    0  501  0.00000000000E+00  0.00000000000E+00 -0.23797858282E+03  0.23797858282E+03  0.00000000000E+00 0.  1.
      -24    2    1    2    0    0  0.00000000000E+00  0.00000000000E+00 -0.23147536494E+03  0.24448180071E+03  0.78679770616E+02 0.  0.
       11    1    3    3    0    0 -0.38153874853E+02 -0.95804574602E+01 -0.11682853832E+03  0.12327372265E+03  0.00000000000E+00 0. -1.
      -12    1    3    3    0    0  0.38153874853E+02  0.95804574602E+01 -0.11464682662E+03  0.12120807805E+03  0.00000000000E+00 0.  1.
</event>
<event>
 5   0  0.2413800E+01  0.7885066E+02  0.7957747E-01  0.1330684E+00
       -4   -1    0    0    0  501  0.00000000000E+00  0.00000000000E+00  0.93132985952E+01  0.93132985952E+01  0.00000000000E+00 0.  1.
        3   -1    0    0  501    0  0.00000000000E+00  0.00000000000E+00 -0.16689647891E+03  0.16689647891E+03  0.00000000000E+00 0. -1.
      -24    2    1    2    0    0  0.00000000000E+00  0.00000000000E+00 -0.15758318032E+03  0.17620977751E+03  0.78850662461E+02 0.  0.
       11    1    3    3    0    0  0.31210647355E+02 -0.20290042842E+02 -0.10780576053E+03  0.11405205983E+03  0.00000000000E+00 0. -1.
      -12    1    3    3    0    0 -0.31210647355E+02  0.20290042842E+02 -0.49777419789E+02  0.62157717684E+02  0.00000000000E+00 0.  1.
</event>
<event>
 5   0  0.2413800E+01  0.8207911E+02  0.7957747E-01  0.1322070E+00
        1   -1    0    0  501    0  0.00000000000E+00  0.00000000000E+00  0.57088859455E+02  0.57088859455E+02  0.00000000000E+00 0. -1.
       -2   -1    0    0    0  501  0.00000000000E+00  0.00000000000E+00 -0.29502169665E+02  0.29502169665E+02  0.00000000000E+00 0.  1.
      -24    2    1    2    0    0  0.00000000000E+00  0.00000000000E+00  0.27586689790E+02  0.86591029120E+02  0.82079113484E+02 0.  0.
       11    1    3    3    0    0  0.97473554569E+01  0.17324710611E+02  0.51670874098E+02  0.55362765160E+02  0.00000000000E+00 0. -1.
      -12    1    3    3    0    0 -0.97473554569E+01 -0.17324710611E+02 -0.24084184307E+02  0.31228263959E+02  0.00000000000E+00 0.  1.
</event>
<event>
 5   0  0.2413800E+01  0.8436795E+02  0.7957747E-01  0.1316230E+00
       -2   -1    0    0    0  501  0.00000000000E+00  0.00000000000E+00  0.13980201586E+02  0.13980201586E+02  0.00000000000E+00 0.  1.
        1   -1    0    0  501    0  0.00000000000E+00  0.00000000000E+00 -0.12728627208E+03  0.12728627208E+03  0.00000000000E+00 0. -1.
      -24    2    1    2    0    0  0.00000000000E+00  0.00000000000E+00 -0.11330607050E+03  0.14126647367E+03  0.84367949907E+02 0.  0.
       11    1    3    3    0    0 -0.21280145705E+01 -0.23282043699E+02 -0.11544616031E+03  0.11778963425E+03  0.00000000000E+00 0. -1.
      -12    1    3    3    0    0  0.21280145705E+01  0.23282043699E+02  0.21400898179E+01  0.23476839422E+02  0.00000000000E+00 0.  1.
</event>
<event>
 5   0  0.2413800E+01  0.7973762E+02  0.7957747E-01  0.1328272E+00
        1   -1    0    0  501    0  0.00000000000E+00  0.00000000000E+00  0.46870033130E+03  0.46870033130E+03  0.00000000000E+00 0. -1.
       -2   -1    0    0    0  501  0.00000000000E+00  0.00000000000E+00 -0.33913394127E+01  0.33913394127E+01  0.00000000000E+00 0.  1.
      -24    2    1    2    0    0  0.00000000000E+00  0.00000000000E+00  0.46530899189E+03  0.47209167071E+03  0.79737617378E+02 0.  0.
       11    1    3    3    0    0  0.28344175172E+02  0.27188699202E+02  0.19210650872E+03  0.19608041290E+03  0.00000000000E+00 0. -1.
      -12    1    3    3    0    0 -0.28344175172E+02 -0.27188699202E+02  0.27320248316E+03  0.27601125781E+03  0.00000000000E+00 0.  1.
</event>
<event>
 5   0  0.2413800E+01  0.7885433E+02  0.7957747E-01  0.1330674E+00
       -2   -1    0    0    0  501  0.00000000000E+00  0.00000000000E+00  0.96961224356E+02  0.96961224356E+02  0.00000000000E+00 0.  1.
        1   -1    0    0  501    0  0.00000000000E+00  0.00000000000E+00 -0.16032195569E+02  0.16032195569E+02  0.00000000000E+00 0. -1.
      -24    2    1    2    0    0  0.00000000000E+00  0.00000000000E+00  0.80929028787E+02  0.11299341992E+03  0.78854329278E+02 0.  0.
       11    1    3    3    0    0  0.33863072202E+02  0.16089274847E+02  0.22977442965E+02  0.43971983231E+02  0.00000000000E+00 0. -1.
      -12    1    3    3    0    0 -0.33863072202E+02 -0.16089274847E+02  0.57951585822E+02  0.69021436694E+02  0.00000000000E+00 0.  1.
</event>
<event>
 5   0  0.2413800E+01  0.7472399E+02  0.7957747E-01  0.1342401E+00
        1   -1    0    0  501    0  0.00000000000E+00  0.00000000000E+00  0.64443640541E+02  0.64443640541E+02  0.00000000000E+00 0. -1.
       -2   -1    0    0    0  501  0.00000000000E+00  0.00000000000E+00 -0.21661077523E+02  0.21661077523E+02  0.00000000000E+00 0.  1.
      -24    2    1    2    0    0  0.00000000000E+00  0.00000000000E+00  0.42782563018E+02  0.86104718064E+02  0.74723990622E+02 0.  0.
       11    1    3    3    0    0  0.55892668053E+01 -0.18598286229E+02  0.58170935426E+02  0.61326942549E+02  0.00000000000E+00 0. -1.
      -12    1    3    3    0    0 -0.55892668053E+01  0.18598286229E+02 -0.15388372409E+02  0.24777775515E+02  0.00000000000E+00 0.  1.
</event>
<event>
 5   0  0.2413800E+01  0.8037770E+02  0.7957747E-01  0.1326553E+00
       -2   -1    0    0    0  501  0.00000000000E+00  0.00000000000E+00  0.19445483428E+03  0.19445483428E+03  0.00000000000E+00 0.  1.
        1   -1    0    0  501    0  0.00000000000E+00  0.00000000000E+00 -0.83060091494E+01  0.83060091494E+01  0.00000000000E+00 0. -1.
      -24    2    1    2    0    0  0.00000000000E+00  0.00000000000E+00  0.18614882514E+03  0.20276084343E+03  0.80377699213E+02 0.  0.
       11    1    3    3    0    0 -0.20386532374E+02  0.30980870855E+02  0.54017369628E+02  0.65523288095E+02  0.00000000000E+00 0. -1.
      -12    1    3    3    0    0  0.20386532374E+02 -0.30980870855E+02  0.13213145551E+03  0.13723755534E+03  0.00000000000E+00 0.  1.
</event>
<event>
 5   0  0.2413800E+01  0.7847712E+02  0.7957747E-01  0.1331711E+00
       -2   -1    0    0    0  501  0.00000000000E+00  0.00000000000E+00  0.16140027303E+02  0.16140027303E+02  0.00000000000E+00 0.  1.
        1   -1    0    0  501    0  0.00000000000E+00  0.00000000000E+00 -0.95394174420E+02  0.95394174420E+02  0.00000000000E+00 0. -1.
      -24    2    1    2    0    0  0.00000000000E+00  0.00000000000E+00 -0.79254147117E+02  0.11153420172E+03  0.78477119714E+02 0.  0.
       11    1    3    3    0    0  0.12591531951E+02  0.10924837441E+02 -0.90111146920E+02  0.91640152494E+02  0.00000000000E+00 0. -1.
      -12    1    3    3    0    0 -0.12591531951E+02 -0.10924837441E+02  0.10856999802E+02  0.19894049229E+02  0.00000000000E+00 0.  1.
</event>
<event>
 5   0  0.2413800E+01  0.8844391E+02  0.7957747E-01  0.1306331E+00
        1   -1    0    0  501    0  0.00000000000E+00  0.00000000000E+00  0.72611414968E+02  0.72611414968E+02  0.00000000000E+00 0. -1.
       -2   -1    0    0    0  501  0.00000000000E+00  0.00000000000E+00 -0.26932145156E+02  0.26932145156E+02  0.00000000000E+00 0.  1.
      -24    2    1    2    0    0  0.00000000000E+00  0.00000000000E+00  0.45679269812E+02  0.99543560125E+02  0.88443906923E+02 0.  0.
       11    1    3    3    0    0  0.26611580735E+02 -0.12570846907E+02  0.59987571810E+02  0.66818494392E+02  0.00000000000E+00 0. -1.
      -12    1    3    3    0    0 -0.26611580735E+02  0.12570846907E+02 -0.14308301998E+02  0.32725065733E+02  0.00000000000E+00 0.  1.
</event>
<event>
 5   0  0.2413800E+01  0.7624657E+02  0.7957747E-01  0.1337980E+00
       -2   -1    0    0    0  501  0.00000000000E+00  0.00000000000E+00  0.14955370996E+02  0.14955370996E+02  0.00000000000E+00 0.  1.
        1   -1    0    0  501    0  0.00000000000E+00  0.00000000000E+00 -0.97181476553E+02  0.97181476553E+02  0.00000000000E+00 0. -1.
      -24    2    1    2    0    0  0.00000000000E+00  0.00000000000E+00 -0.82226105558E+02  0.11213684755E+03  0.76246574631E+02 0.  0.
       11    1    3    3    0    0 -0.13224890170E+02  0.27664173909E+02 -0.74429846792E+02  0.80498486517E+02  0.00000000000E+00 0. -1.
      -12    1    3    3    0    0  0.13224890170E+02 -0.27664173909E+02 -0.77962587658E+01  0.31638361032E+02  0.00000000000E+00 0.  1.
</event>
<event>
 5   0  0.2413800E+01  0.8044395E+02  0.7957747E-01  0.1326376E+00
        1   -1    0    0  501    0  0.00000000000E+00  0.00000000000E+00  0.52379296192E+02  0.52379296192E+02  0.00000000000E+00 0. -1.
       -2   -1    0    0    0  501  0.00000000000E+00  0.00000000000E+00 -0.30886388518E+02  0.30886388518E+02  0.00000000000E+00 0.  1.
      -24    2    1    2    0    0  0.00000000000E+00  0.00000000000E+00  0.21492907674E+02  0.83265684711E+02  0.80443950488E+02 0.  0.
       11    1    3    3    0    0  0.92832824565E+01  0.12768640923E+02  0.49038565095E+02  0.51516971871E+02  0.00000000000E+00 0. -1.
      -12    1    3    3    0    0 -0.92832824565E+01 -0.12768640923E+02 -0.27545657421E+02  0.31748712839E+02  0.00000000000E+00 0.  1.
</event>
<event>
 5   0  0.2413800E+01  0.8185843E+02  0.7957747E-01  0.1322645E+00
       -2   -1    0    0    0  501  0.00000000000E+00  0.00000000000E+00  0.46254701809E+03  0.46254701809E+03  0.00000000000E+00 0.  1.
        1   -1    0    0  501    0  0.00000000000E+00  0.00000000000E+00 -0.36216874914E+01  0.36216874914E+01  0.00000000000E+00 0. -1.
      -24    2    1    2    0    0  0.00000000000E+00  0.00000000000E+00  0.45892533060E+03  0.46616870558E+03  0.81858432666E+02 0.  0.
       11    1    3    3    0    0  0.97501374070E+01 -0.16766709006E+02  0.24211115176E+02  0.31022021346E+02  0.00000000000E+00 0. -1.
      -12    1    3    3    0    0 -0.97501374070E+01  0.16766709006E+02  0.43471421542E+03  0.43514668424E+03  0.00000000000E+00 0.  1.
</event>
<event>
 5   0  0.2413800E+01  0.8340889E+02  0.7957747E-01  0.1318651E+00
       -2   -1    0    0    0  501  0.00000000000E+00  0.00000000000E+00  0.60792719693E+03  0.60792719693E+03  0.00000000000E+00 0.  1.
        1   -1    0    0  501    0  0.00000000000E+00  0.00000000000E+00 -0.28609688338E+01  0.28609688338E+01  0.00000000000E+00 0. -1.
      -24    2    1    2    0    0  0.00000000000E+00  0.00000000000E+00  0.60506622809E+03  0.61078816576E+03  0.83408890741E+02 0.  0.
       11    1    3    3    0    0 -0.75281165998E+01  0.29727914985E+02  0.95562838376E+02  0.10036272987E+03  0.00000000000E+00 0. -1.
      -12    1    3    3    0    0  0.75281165998E+01 -0.29727914985E+02  0.50950338972E+03  0.51042543589E+03  0.00000000000E+00 0.  1.
</event>
<event>
 5   0  0.2413800E+01  0.8131038E+02  0.7957747E-01  0.1324080E+00
        1   -1    0    0  501    0  0.00000000000E+00  0.00000000000E+00  0.11491345902E+03  0.11491345902E+03  0.00000000000E+00 0. -1.
       -2   -1    0    0    0  501  0.00000000000E+00  0.00000000000E+00 -0.14383384936E+02  0.14383384936E+02  0.00000000000E+00 0.  1.
      -24    2    1    2    0    0  0.00000000000E+00  0.00000000000E+00  0.10053007408E+03  0.12929684396E+03  0.81310381021E+02 0.  0.
       11    1    3    3    0    0  0.13214690077E+02  0.22894828632E+02  0.99381374187E+02  0.10283704949E+03  0.00000000000E+00 0. -1.
      -12    1    3    3    0    0 -0.13214690077E+02 -0.22894828632E+02  0.11486998970E+01  0.26459794469E+02  0.00000000000E+00 0.  1.
</event>
<event>
 5   0  0.2413800E+01  0.7963475E+02  0.7957747E-01  0.1328550E+00
       -2   -1    0    0    0  501  0.00000000000E+00  0.00000000000E+00  0.61419335068E+03  0.61419335068E+03  0.00000000000E+00 0.  1.
        1   -1    0    0  501    0  0.00000000000E+00  0.00000000000E+00 -0.25813098694E+01  0.25813098694E+01  0.00000000000E+00 0. -1.
      -24    2    1    2    0    0  0.00000000000E+00  0.00000000000E+00  0.61161204081E+03  0.61677466055E+03  0.79634750148E+02 0.  0.
       11    1    3    3    0    0  0.19878479257E+02 -0.13637050327E+02  0.60360170818E+02  0.64995948339E+02  0.00000000000E+00 0. -1.
      -12    1    3    3    0    0 -0.19878479257E+02  0.13637050327E+02  0.55125186999E+03  0.55177871221E+03  0.00000000000E+00 0.  1.
</event>
<event>
 5   0  0.2413800E+01  0.8490387E+02  0.7957747E-01  0.1314893E+00
        1   -1    0    0  501    0  0.00000000000E+00  0.00000000000E+00  0.23785977999E+03  0.23785977999E+03  0.00000000000E+00 0. -1.
       -2   -1    0    0    0  501  0.00000000000E+00  0.00000000000E+00 -0.75765936245E+01  0.75765936245E+01  0.00000000000E+00 0.  1.
      -24    2    1    2    0    0  0.00000000000E+00  0.00000000000E+00  0.23028318636E+03  0.24543637361E+03  0.84903872528E+02 0.  0.
       11    1    3    3    0    0 -0.38560334986E+02 -0.17751289171E+02  0.11398821751E+03  0.12163602030E+03  0.00000000000E+00 0. -1.
      -12    1    3    3    0    0  0.38560334986E+02  0.17751289171E+02  0.11629496885E+03  0.12380035332E+03  0.00000000000E+00 0.  1.
</event>
<event>
 5   0  0.2413800E+01  0.7703495E+02  0.7957747E-01  0.1335737E+00
       -4   -1    0    0    0  501  0.00000000000E+00  0.00000000000E+00  0.59864569173E+01  0.59864569173E+01  0.00000000000E+00 0.  1.
        3   -1    0    0  501    0  0.00000000000E+00  0.00000000000E+00 -0.24782536633E+03  0.24782536633E+03  0.00000000000E+00 0. -1.
      -24    2    1    2    0    0  0.00000000000E+00  0.00000000000E+00 -0.24183890941E+03  0.25381182325E+03  0.77034949952E+02 0.  0.
       11    1    3    3    0    0  0.34996976228E+02 -0.29837195146E+01 -0.17300431150E+03  0.17653380052E+03  0.00000000000E+00 0. -1.
      -12    1    3    3    0    0 -0.34996976228E+02  0.29837195146E+01 -0.68834597907E+02  0.77278022725E+02  0.00000000000E+00 0.  1.
</event>
<event>
 5   0  0.2413800E+01  0.8137316E+02  0.7957747E-01  0.1323915E+00
        3   -1    0    0  501    0  0.00000000000E+00  0.00000000000E+00  0.12915330495E+03  0.12915330495E+03  0.00000000000E+00 0. -1.
       -4   -1    0    0    0  501  0.00000000000E+00  0.00000000000E+00 -0.12817308547E+02  0.12817308547E+02  0.00000000000E+00 0.  1.
      -24    2    1    2    0    0  0.00000000000E+00  0.00000000000E+00  0.11633599640E+03  0.14197061349E+03  0.81373159196E+02 0.  0.
       11    1    3    3    0    0  0.12058140635E+02  0.18232045544E+02  0.11803873688E+03  0.12004561485E+03  0.00000000000E+00 0. -1.
      -12    1    3    3    0    0 -0.12058140635E+02 -0.18232045544E+02 -0.17027404828E+01  0.21924998642E+02  0.00000000000E+00 0.  1.
</event>
<event>
 5   0  0.2413800E+01  0.8064297E+02  0.7957747E-01  0.1325846E+00
       -2   -1    0    0    0  501  0.00000000000E+00  0.00000000000E+00  0.99232573252E+02  0.99232573252E+02  0.00000000000E+00 0.  1.
        1   -1    0    0  501    0  0.00000000000E+00  0.00000000000E+00 -0.16383958077E+02  0.16383958077E+02  0.00000000000E+00 0. -1.
      -24    2    1    2    0    0  0.00000000000E+00  0.00000000000E+00  0.82848615174E+02  0.11561653133E+03  0.80642974153E+02 0.  0.
       11    1    3    3    0    0 -0.21724782559E+02 -0.42995129597E+01 -0.68840386132E+01  0.23191420322E+02  0.00000000000E+00 0. -1.
      -12    1    3    3    0    0  0.21724782559E+02  0.42995129597E+01  0.89732653787E+02  0.92425111007E+02  0.00000000000E+00 0.  1.
</event>
<event>
 5   0  0.2413800E+01  0.8087343E+02  0.7957747E-01  0.1325234E+00
       -4   -1    0    0    0  501  0.00000000000E+00  0.00000000000E+00  0.29198370385E+02  0.29198370385E+02  0.00000000000E+00 0.  1.
        3   -1    0    0  501    0  0.00000000000E+00  0.00000000000E+00 -0.56000653780E+02  0.56000653780E+02  0.00000000000E+00 0. -1.
      -24    2    1    2    0    0  0.00000000000E+00  0.00000000000E+00 -0.26802283395E+02  0.85199024165E+02  0.80873427796E+02 0.  0.
       11    1    3    3    0    0  0.24376931090E+02  0.14385006327E+02 -0.43824180538E+02  0.52170125323E+02  0.00000000000E+00 0. -1.
      -12    1    3    3    0    0 -0.24376931090E+02 -0.14385006327E+02  0.17021897144E+02  0.33028898842E+02  0.00000000000E+00 0.  1.
</event>
<event>
 4   0  0.2413800E+01  0.1669930E+03  0.7957747E-01  0.1186161E+00
        1   -1    0    0  501    0  0.00000000000E+00  0.00000000000E+00  0.12630261840E+03  0.12630261840E+03  0.00000000000E+00 0. -1.
       -2   -1    0    0    0  501  0.00000000000E+00  0.00000000000E+00 -0.55198133577E+02  0.55198133577E+02  0.00000000000E+00 0.  1.
       11    1    1    2    0    0  0.22335558608E+02  0.70267735365E+02  0.78138332874E+02  0.10743384418E+03  0.00000000000E+00 0. -1.
      -12    1    1    2    0    0 -0.22335558608E+02 -0.70267735365E+02 -0.70338480516E+01  0.74066907793E+02  0.00000000000E+00 0.  1.
</event>
<event>
 5   0  0.2413800E+01  0.7861059E+02  0.7957747E-01  0.1331343E+00
        1   -1    0    0  501    0  0.00000000000E+00  0.00000000000E+00  0.30445252307E+02  0.30445252307E+02  0.00000000000E+00 0. -1.
       -2   -1    0    0    0  501  0.00000000000E+00  0.00000000000E+00 -0.50743743315E+02  0.50743743315E+02  0.00000000000E+00 0.  1.
      -24    2    1    2    0    0  0.00000000000E+00  0.00000000000E+00 -0.20298491008E+02  0.81188995621E+02  0.78610586264E+02 0.  0.
       11    1    3    3    0    0 -0.25467271222E+02 -0.10618757013E+02  0.18761145853E+02  0.33366457674E+02  0.00000000000E+00 0. -1.
      -12    1    3    3    0    0  0.25467271222E+02  0.10618757013E+02 -0.39059636861E+02  0.47822537947E+02  0.00000000000E+00 0.  1.
</event>
<event>
 5   0  0.2413800E+01  0.7867083E+02  0.7957747E-01  0.1331178E+00
        1   -1    0    0  501    0  0.00000000000E+00  0.00000000000E+00  0.59481632627E+02  0.59481632627E+02  0.00000000000E+00 0. -1.
       -2   -1    0    0    0  501  0.00000000000E+00  0.00000000000E+00 -0.26012647807E+02  0.26012647807E+02  0.00000000000E+00 0.  1.
      -24    2    1    2    0    0  0.00000000000E+00  0.00000000000E+00  0.33468984821E+02  0.85494280434E+02  0.78670827134E+02 0.  0.
       11    1    3    3    0    0  0.32942815506E+01 -0.25748785537E+02  0.48851534145E+02  0.55320200974E+02  0.00000000000E+00 0. -1.
      -12    1    3    3    0    0 -0.32942815506E+01  0.25748785537E+02 -0.15382549324E+02  0.30174079460E+02  0.00000000000E+00 0.  1.
</event>
<event>
 4   0  0.2413800E+01  0.4262364E+02  0.7957747E-01  0.1478341E+00
       -4   -1    0    0    0  501  0.00000000000E+00  0.00000000000E+00  0.74845765807E+02  0.74845765807E+02  0.00000000000E+00 0.  1.
        3   -1    0    0  501    0  0.00000000000E+00  0.00000000000E+00 -0.60683960822E+01  0.60683960822E+01  0.00000000000E+00 0. -1.
       11    1    1    2    0    0  0.11925516876E+02  0.10037569476E+02  0.67991379696E+01  0.17005852842E+02  0.00000000000E+00 0. -1.
      -12    1    1    2    0    0 -0.11925516876E+02 -0.10037569476E+02  0.61978231756E+02  0.63908309047E+02  0.00000000000E+00 0.  1.
</event>
<event>
 5   0  0.2413800E+01  0.7947488E+02  0.7957747E-01  0.1328983E+00
        1   -1    0    0  501    0  0.00000000000E+00  0.00000000000E+00  0.16441932707E+03  0.16441932707E+03  0.00000000000E+00 0. -1.
       -2   -1    0    0    0  501  0.00000000000E+00  0.00000000000E+00 -0.96038831151E+01  0.96038831151E+01  0.00000000000E+00 0.  1.
      -24    2    1    2    0    0  0.00000000000E+00  0.00000000000E+00  0.15481544396E+03  0.17402321019E+03  0.79474876509E+02 0.  0.
       11    1    3    3    0    0 -0.14099212903E+02 -0.31994767591E+02  0.11875764513E+03  0.12379754131E+03  0.00000000000E+00 0. -1.
      -12    1    3    3    0    0  0.14099212903E+02  0.31994767591E+02  0.36057798822E+02  0.50225668871E+02  0.00000000000E+00 0.  1.
</event>
<event>
 5   0  0.2413800E+01  0.8042799E+02  0.7957747E-01  0.1326418E+00
        1   -1    0    0  501    0  0.00000000000E+00  0.00000000000E+00  0.42292612454E+03  0.42292612454E+03  0.00000000000E+00 0. -1.
       -2   -1    0    0    0  501  0.00000000000E+00  0.00000000000E+00 -0.38237537127E+01  0.38237537127E+01  0.00000000000E+00 0.  1.
      -24    2    1    2    0    0  0.00000000000E+00  0.00000000000E+00  0.41910237083E+03  0.42674987826E+03  0.80427988634E+02 0.  0.
       11    1    3    3    0    0  0.33551674857E+02  0.22164407217E+02  0.20724136814E+03  0.21110651459E+03  0.00000000000E+00 0. -1.
      -12    1    3    3    0    0 -0.33551674857E+02 -0.22164407217E+02  0.21186100269E+03  0.21564336367E+03  0.00000000000E+00 0.  1.
</event>
<event>
 4   0  0.2413800E+01  0.4877631E+02  0.7957747E-01  0.1443238E+00
        3   -1    0    0  501    0  0.00000000000E+00  0.00000000000E+00  0.36591814850E+02  0.36591814850E+02  0.00000000000E+00 0. -1.
       -4   -1    0    0    0  501  0.00000000000E+00  0.00000000000E+00 -0.16254511907E+02  0.16254511907E+02  0.00000000000E+00 0.  1.
       11    1    1    2    0    0 -0.20265857556E+02  0.99413914946E+01  0.20171932577E+02  0.30272811419E+02  0.00000000000E+00 0. -1.
      -12    1    1    2    0    0  0.20265857556E+02 -0.99413914946E+01  0.16537036618E+00  0.22573515337E+02  0.00000000000E+00 0.  1.
</event>
<event>
 5   0  0.2413800E+01  0.5321338E+02  0.7957747E-01  0.1421444E+00
        3   -1    0    0  501    0  0.00000000000E+00  0.00000000000E+00  0.47056509380E+01  0.47056509380E+01  0.00000000000E+00 0. -1.
       -4   -1    0    0    0  501  0.00000000000E+00  0.00000000000E+00 -0.15043955127E+03  0.15043955127E+03  0.00000000000E+00 0.  1.
      -24    2    1    2    0    0  0.00000000000E+00  0.00000000000E+00 -0.14573390034E+03  0.15514520221E+03  0.53213382361E+02 0.  0.
       11    1    3    3    0    0 -0.13193512915E+01  0.20923800611E+02 -0.25104743447E+02  0.32707709541E+02  0.00000000000E+00 0. -1.
      -12    1    3    3    0    0  0.13193512915E+01 -0.20923800611E+02 -0.12062915689E+03  0.12243749267E+03  0.00000000000E+00 0.  1.
</event>
<event>
 5   0  0.2413800E+01  0.8210902E+02  0.7957747E-01  0.1321992E+00
        1   -1    0    0  501    0  0.00000000000E+00  0.00000000000E+00  0.90580841062E+01  0.90580841062E+01  0.00000000000E+00 0. -1.
       -2   -1    0    0    0  501  0.00000000000E+00  0.00000000000E+00 -0.18607389441E+03  0.18607389441E+03  0.00000000000E+00 0.  1.
      -24    2    1    2    0    0  0.00000000000E+00  0.00000000000E+00 -0.17701581031E+03  0.19513197852E+03  0.82109024731E+02 0.  0.
       11    1    3    3    0    0  0.18022843191E+02  0.96723981708E+01 -0.39134081427E+01  0.20825295348E+02  0.00000000000E+00 0. -1.
      -12    1    3    3    0    0 -0.18022843191E+02 -0.96723981708E+01 -0.17310240216E+03  0.17430668317E+03  0.00000000000E+00 0.  1.
</event>
<event>
 5   0  0.2413800E+01  0.8179334E+02  0.7957747E-01  0.1322814E+00
        1   -1    0    0  501    0  0.00000000000E+00  0.00000000000E+00  0.45285512935E+02  0.45285512935E+02  0.00000000000E+00 0. -1.
       -2   -1    0    0    0  501  0.00000000000E+00  0.00000000000E+00 -0.36933168697E+02  0.36933168697E+02  0.00000000000E+00 0.  1.
      -24    2    1    2    0    0  0.00000000000E+00  0.00000000000E+00  0.83523442374E+01  0.82218681632E+02  0.81793336862E+02 0.  0.
       11    1    3    3    0    0  0.12819157718E+02 -0.38831030511E+02  0.35749366345E+01  0.41048263143E+02  0.00000000000E+00 0. -1.
      -12    1    3    3    0    0 -0.12819157718E+02  0.38831030511E+02  0.47774076030E+01  0.41170418489E+02  0.00000000000E+00 0.  1.
</event>
<event>
 5   0  0.2413800E+01  0.8094882E+02  0.7957747E-01  0.1325034E+00
       -2   -1    0    0    0  501  0.00000000000E+00  0.00000000000E+00  0.19208835930E+03  0.19208835930E+03  0.00000000000E+00 0.  1.
        1   -1    0    0  501    0  0.00000000000E+00  0.00000000000E+00 -0.85282520232E+01  0.85282520232E+01  0.00000000000E+00 0. -1.
      -24    2    1    2    0    0  0.00000000000E+00  0.00000000000E+00  0.18356010728E+03  0.20061661132E+03  0.80948821828E+02 0.  0.
       11    1    3    3    0    0  0.10215404101E+02  0.17678512046E+02  0.51703781906E+01  0.21062219251E+02  0.00000000000E+00 0. -1.
      -12    1    3    3    0    0 -0.10215404101E+02 -0.17678512046E+02  0.17838972908E+03  0.17955439207E+03  0.00000000000E+00 0.  1.
</event>
<event>
 5   0  0.2413800E+01  0.8007743E+02  0.7957747E-01  0.1327357E+00
       -2   -1    0    0    0  501  0.00000000000E+00  0.00000000000E+00  0.72531209554E+02  0.72531209554E+02  0.00000000000E+00 0.  1.
        1   -1    0    0  501    0  0.00000000000E+00  0.00000000000E+00 -0.22102190606E+02  0.22102190606E+02  0.00000000000E+00 0. -1.
      -24    2    1    2    0    0  0.00000000000E+00  0.00000000000E+00  0.50429018948E+02  0.94633400160E+02  0.80077427992E+02 0.  0.
       11    1    3    3    0    0  0.48863586980E+01  0.19170278992E+02 -0.15922803296E+02  0.25395112970E+02  0.00000000000E+00 0. -1.
      -12    1    3    3    0    0 -0.48863586980E+01 -0.19170278992E+02  0.66351822244E+02  0.69238287190E+02  0.00000000000E+00 0.  1.
</event>
<event>
 5   0  0.2413800E+01  0.8297039E+02  0.7957747E-01  0.1319771E+00
       -2   -1    0    0    0  501  0.00000000000E+00  0.00000000000E+00  0.19019961472E+02  0.19019961472E+02  0.00000000000E+00 0.  1.
        1   -1    0    0  501    0  0.00000000000E+00  0.00000000000E+00 -0.90484999554E+02  0.90484999554E+02  0.00000000000E+00 0. -1.
      -24    2    1    2    0    0  0.00000000000E+00  0.00000000000E+00 -0.71465038082E+02  0.10950496103E+03  0.82970385206E+02 0.  0.
       11    1    3    3    0    0  0.44591200951E+01  0.17374656976E+02 -0.85102129893E+02  0.86972035560E+02  0.00000000000E+00 0. -1.
      -12    1    3    3    0    0 -0.44591200951E+01 -0.17374656976E+02  0.13637091811E+02  0.22532925467E+02  0.00000000000E+00 0.  1.
</event>
<event>
 5   0  0.2413800E+01  0.7901592E+02  0.7957747E-01  0.1330232E+00
       -2   -1    0    0    0  501  0.00000000000E+00  0.00000000000E+00  0.12378359472E+02  0.12378359472E+02  0.00000000000E+00 0.  1.
        1   -1    0    0  501    0  0.00000000000E+00  0.00000000000E+00 -0.12609738406E+03  0.12609738406E+03  0.00000000000E+00 0. -1.
      -24    2    1    2    0    0  0.00000000000E+00  0.00000000000E+00 -0.11371902458E+03  0.13847574353E+03  0.79015916076E+02 0.  0.
       11    1    3    3    0    0 -0.14130570255E+02  0.33455746718E+02 -0.84117505932E+02  0.91622676279E+02  0.00000000000E+00 0. -1.
      -12    1    3    3    0    0  0.14130570255E+02 -0.33455746718E+02 -0.29601518653E+02  0.46853067251E+02  0.00000000000E+00 0.  1.
</event>
<event>
 5   0  0.2413800E+01  0.7853568E+02  0.7957747E-01  0.1331549E+00
        3   -1    0    0  501    0  0.00000000000E+00  0.00000000000E+00  0.81478495925E+02  0.81478495925E+02  0.00000000000E+00 0. -1.
       -4   -1    0    0    0  501  0.00000000000E+00  0.00000000000E+00 -0.18924787678E+02  0.18924787678E+02  0.00000000000E+00 0.  1.
      -24    2    1    2    0    0  0.00000000000E+00  0.00000000000E+00  0.62553708248E+02  0.10040328360E+03  0.78535679425E+02 0.  0.
       11    1    3    3    0    0 -0.30025218047E+02 -0.15396539000E+02  0.56954000723E+02  0.66199133909E+02  0.00000000000E+00 0. -1.
      -12    1    3    3    0    0  0.30025218047E+02  0.15396539000E+02  0.55997075245E+01  0.34204149694E+02  0.00000000000E+00 0.  1.
</event>
<event>
 5   0  0.2413800E+01  0.8610464E+02  0.7957747E-01  0.1311937E+00
       -2   -1    0    0    0  501  0.00000000000E+00  0.00000000000E+00  0.13927627112E+03  0.13927627112E+03  0.00000000000E+00 0.  1.
        1   -1    0    0  501    0  0.00000000000E+00  0.00000000000E+00 -0.13308097255E+02  0.13308097255E+02  0.00000000000E+00 0. -1.
      -24    2    1    2    0    0  0.00000000000E+00  0.00000000000E+00  0.12596817387E+03  0.15258436838E+03  0.86104637771E+02 0.  0.
       11    1    3    3    0    0 -0.20120805534E+02  0.32545824396E+02  0.28014119719E+02  0.47422235340E+02  0.00000000000E+00 0. -1.
      -12    1    3    3    0    0  0.20120805534E+02 -0.32545824396E+02  0.97954054147E+02  0.10516213304E+03  0.00000000000E+00 0.  1.
</event>
<event>
 5   0  0.2413800E+01  0.8044328E+02  0.7957747E-01  0.1326378E+00
       -2   -1    0    0    0  501  0.00000000000E+00  0.00000000000E+00  0.16145247625E+02  0.16145247625E+02  0.00000000000E+00 0.  1.
        1   -1    0    0  501    0  0.00000000000E+00  0.00000000000E+00 -0.10020163610E+03  0.10020163610E+03  0.00000000000E+00 0. -1.
      -24    2    1    2    0    0  0.00000000000E+00  0.00000000000E+00 -0.84056388471E+02  0.11634688372E+03  0.80443277585E+02 0.  0.
       11    1    3    3    0    0  0.37522419449E+02 -0.91198944949E-01 -0.62979402978E+02  0.73309927554E+02  0.00000000000E+00 0. -1.
      -12    1    3    3    0    0 -0.37522419449E+02  0.91198944949E-01 -0.21076985493E+02  0.43036956166E+02  0.00000000000E+00 0.  1.
</event>
<event>
 5   0  0.2413800E+01  0.7217186E+02  0.7957747E-01  0.1350085E+00
        1   -1    0    0  501    0  0.00000000000E+00  0.00000000000E+00  0.24668828706E+01  0.24668828706E+01  0.00000000000E+00 0. -1.
       -2   -1    0    0    0  501  0.00000000000E+00  0.00000000000E+00 -0.52787043027E+03  0.52787043027E+03  0.00000000000E+00 0.  1.
      -24    2    1    2    0    0  0.00000000000E+00  0.00000000000E+00 -0.52540354740E+03  0.53033731314E+03  0.72171864943E+02 0.  0.
       11    1    3    3    0    0 -0.17261807381E+02  0.11156637596E+02 -0.44747759105E+02  0.49242283674E+02  0.00000000000E+00 0. -1.
      -12    1    3    3    0    0  0.17261807381E+02 -0.11156637596E+02 -0.48065578829E+03  0.48109502946E+03  0.00000000000E+00 0.  1.
</event>
<event>
 5   0  0.2413800E+01  0.7868110E+02  0.7957747E-01  0.1331149E+00
        1   -1    0    0  501    0  0.00000000000E+00  0.00000000000E+00  0.61626163681E+02  0.61626163681E+02  0.00000000000E+00 0. -1.
       -2   -1    0    0    0  501  0.00000000000E+00  0.00000000000E+00 -0.25113992233E+02  0.25113992233E+02  0.00000000000E+00 0.  1.
      -24    2    1    2    0    0  0.00000000000E+00  0.00000000000E+00  0.36512171449E+02  0.86740155914E+02  0.78681103094E+02 0.  0.
       11    1    3    3    0    0  0.27078234522E+02 -0.21664246528E+02  0.38735978122E+02  0.51990829610E+02  0.00000000000E+00 0. -1.
      -12    1    3    3    0    0 -0.27078234522E+02  0.21664246528E+02 -0.22238066738E+01  0.34749326304E+02  0.00000000000E+00 0.  1.
</event>
<event>
 5   0  0.2413800E+01  0.8025658E+02  0.7957747E-01  0.1326877E+00
       -2   -1    0    0    0  501  0.00000000000E+00  0.00000000000E+00  0.41955394348E+01  0.41955394348E+01  0.00000000000E+00 0.  1.
        1   -1    0    0  501    0  0.00000000000E+00  0.00000000000E+00 -0.38380750940E+03  0.38380750940E+03  0.00000000000E+00 0. -1.
      -24    2    1    2    0    0  0.00000000000E+00  0.00000000000E+00 -0.37961196997E+03  0.38800304884E+03  0.80256577078E+02 0.  0.
       11    1    3    3    0    0 -0.21013988637E+02 -0.34011877390E+02 -0.17313980090E+03  0.17769576860E+03  0.00000000000E+00 0. -1.
      -12    1    3    3    0    0  0.21013988637E+02  0.34011877390E+02 -0.20647216907E+03  0.21030728024E+03  0.00000000000E+00 0.  1.
</event>
<event>
 5   0  0.2413800E+01  0.7862445E+02  0.7957747E-01  0.1331305E+00
       -2   -1    0    0    0  501  0.00000000000E+00  0.00000000000E+00  0.59443495070E+02  0.59443495070E+02  0.00000000000E+00 0.  1.
        1   -1    0    0  501    0  0.00000000000E+00  0.00000000000E+00 -0.25998653934E+02  0.25998653934E+02  0.00000000000E+00 0. -1.
      -24    2    1    2    0    0  0.00000000000E+00  0.00000000000E+00  0.33444841136E+02  0.85442149004E+02  0.78624445485E+02 0.  0.
       11    1    3    3    0    0 -0.83365416852E+01 -0.38414747048E+02  0.16168155866E+02  0.42504117238E+02  0.00000000000E+00 0. -1.
      -12    1    3    3    0    0  0.83365416852E+01  0.38414747048E+02  0.17276685270E+02  0.42938031767E+02  0.00000000000E+00 0.  1.
</event>
<event>
 5   0  0.2413800E+01  0.8014425E+02  0.7957747E-01  0.1327178E+00
       -4   -1    0    0    0  501  0.00000000000E+00  0.00000000000E+00  0.12136231734E+02  0.12136231734E+02  0.00000000000E+00 0.  1.
        3   -1    0    0  501    0  0.00000000000E+00  0.00000000000E+00 -0.13231249152E+03  0.13231249152E+03  0.00000000000E+00 0. -1.
      -24    2    1    2    0    0  0.00000000000E+00  0.00000000000E+00 -0.12017625979E+03  0.14444872326E+03  0.80144246418E+02 0.  0.
       11    1    3    3    0    0  0.12796088905E+02  0.28791523915E+02 -0.10471548077E+03  0.10935274872E+03  0.00000000000E+00 0. -1.
      -12    1    3    3    0    0 -0.12796088905E+02 -0.28791523915E+02 -0.15460779021E+02  0.35095974535E+02  0.00000000000E+00 0.  1.
</event>
<event>
 5   0  0.2413800E+01  0.7861263E+02  0.7957747E-01  0.1331338E+00
       -2   -1    0    0    0  501  0.00000000000E+00  0.00000000000E+00  0.29959345096E+02  0.29959345096E+02  0.00000000000E+00 0.  1.
        1   -1    0    0  501    0  0.00000000000E+00  0.00000000000E+00 -0.51569437857E+02  0.51569437857E+02  0.00000000000E+00 0. -1.
      -24    2    1    2    0    0  0.00000000000E+00  0.00000000000E+00 -0.21610092761E+02  0.81528782952E+02  0.78612634739E+02 0.  0.
       11    1    3    3    0    0  0.13108784905E+02  0.19859439046E+02 -0.43250531964E+02  0.49364421156E+02  0.00000000000E+00 0. -1.
      -12    1    3    3    0    0 -0.13108784905E+02 -0.19859439046E+02  0.21640439203E+02  0.32164361796E+02  0.00000000000E+00 0.  1.
</event>
<event>
 5   0  0.2413800E+01  0.8133952E+02  0.7957747E-01  0.1324003E+00
       -2   -1    0    0    0  501  0.00000000000E+00  0.00000000000E+00  0.16910576545E+02  0.16910576545E+02  0.00000000000E+00 0.  1.
        1   -1    0    0  501    0  0.00000000000E+00  0.00000000000E+00 -0.97810338341E+02  0.97810338341E+02  0.00000000000E+00 0. -1.
      -24    2    1    2    0    0  0.00000000000E+00  0.00000000000E+00 -0.80899761796E+02  0.11472091489E+03  0.81339515942E+02 0.  0.
       11    1    3    3    0    0 -0.26031526231E+02 -0.10215612226E+01 -0.84497273864E+02  0.88422130916E+02  0.00000000000E+00 0. -1.
      -12    1    3    3    0    0  0.26031526231E+02  0.10215612226E+01  0.35975120682E+01  0.26298783970E+02  0.00000000000E+00 0.  1.
</event>
<event>
 5   0  0.2413800E+01  0.8048847E+02  0.7957747E-01  0.1326257E+00
       -2   -1    0    0    0  501  0.00000000000E+00  0.00000000000E+00  0.54116097438E+02  0.54116097438E+02  0.00000000000E+00 0.  1.
        1   -1    0    0  501    0  0.00000000000E+00  0.00000000000E+00 -0.29928222604E+02  0.29928222604E+02  0.00000000000E+00 0. -1.
      -24    2    1    2    0    0  0.00000000000E+00  0.00000000000E+00  0.24187874835E+02  0.84044320042E+02  0.80488473971E+02 0.  0.
       11    1    3    3    0    0  0.20562986337E+02  0.14733932270E+02 -0.20588568028E+02  0.32616166248E+02  0.00000000000E+00 0. -1.
      -12    1    3    3    0    0 -0.20562986337E+02 -0.14733932270E+02  0.44776442863E+02  0.51428153794E+02  0.00000000000E+00 0.  1.
</event>
<event>
 5   0  0.2413800E+01  0.8542928E+02  0.7957747E-01  0.1313593E+00
       -2   -1    0    0    0  501  0.00000000000E+00  0.00000000000E+00  0.57997469362E+02  0.57997469362E+02  0.00000000000E+00 0.  1.
        1   -1    0    0  501    0  0.00000000000E+00  0.00000000000E+00 -0.31458969945E+02  0.31458969945E+02  0.00000000000E+00 0. -1.
      -24    2    1    2    0    0  0.00000000000E+00  0.00000000000E+00  0.26538499417E+02  0.89456439307E+02  0.85429284102E+02 0.  0.
       11    1    3    3    0    0  0.24581494030E+01 -0.19258524735E+02 -0.26571750582E+02  0.32908831679E+02  0.00000000000E+00 0. -1.
      -12    1    3    3    0    0 -0.24581494030E+01  0.19258524735E+02  0.53110249999E+02  0.56547607628E+02  0.00000000000E+00 0.  1.
</event>
<event>
 5   0  0.2413800E+01  0.8148863E+02  0.7957747E-01  0.1323612E+00
       -2   -1    0    0    0  501  0.00000000000E+00  0.00000000000E+00  0.34347989482E+03  0.34347989482E+03  0.00000000000E+00 0.  1.
        1   -1    0    0  501    0  0.00000000000E+00  0.00000000000E+00 -0.48331775538E+01  0.48331775538E+01  0.00000000000E+00 0. -1.
      -24    2    1    2    0    0  0.00000000000E+00  0.00000000000E+00  0.33864671727E+03  0.34831307238E+03  0.81488632774E+02 0.  0.
       11    1    3    3    0    0  0.63434861308E+01  0.39500321618E+02  0.20231758211E+03  0.20623510674E+03  0.00000000000E+00 0. -1.
      -12    1    3    3    0    0 -0.63434861308E+01 -0.39500321618E+02  0.13632913516E+03  0.14207796563E+03  0.00000000000E+00 0.  1.
</event>
<event>
 5   0  0.2413800E+01  0.8146125E+02  0.7957747E-01  0.1323684E+00
        3   -1    0    0  501    0  0.00000000000E+00  0.00000000000E+00  0.10144511563E+03  0.10144511563E+03  0.00000000000E+00 0. -1.
       -4   -1    0    0    0  501  0.00000000000E+00  0.00000000000E+00 -0.16353510489E+02  0.16353510489E+02  0.00000000000E+00 0.  1.
      -24    2    1    2    0    0  0.00000000000E+00  0.00000000000E+00  0.85091605140E+02  0.11779862612E+03  0.81461248763E+02 0.  0.
       11    1    3    3    0    0 -0.35723725112E+02  0.15394674909E+02  0.60006947069E+02  0.71512336335E+02  0.00000000000E+00 0. -1.
      -12    1    3    3    0    0  0.35723725112E+02 -0.15394674909E+02  0.25084658070E+02  0.46286289784E+02  0.00000000000E+00 0.  1.
</event>
<event>
 5   0  0.2413800E+01  0.8101052E+02  0.7957747E-01  0.1324871E+00
        1   -1    0    0  501    0  0.00000000000E+00  0.00000000000E+00  0.92870433619E+01  0.92870433619E+01  0.00000000000E+00 0. -1.
       -2   -1    0    0    0  501  0.00000000000E+00  0.00000000000E+00 -0.17666292090E+03  0.17666292090E+03  0.00000000000E+00 0.  1.
      -24    2    1    2    0    0  0.00000000000E+00  0.00000000000E+00 -0.16737587754E+03  0.18594996426E+03  0.81010522943E+02 0.  0.
       11    1    3    3    0    0 -0.24582500700E+02 -0.24018477621E+02 -0.34484834223E+02  0.48686655249E+02  0.00000000000E+00 0. -1.
      -12    1    3    3    0    0  0.24582500700E+02  0.24018477621E+02 -0.13289104332E+03  0.13726330902E+03  0.00000000000E+00 0.  1.
</event>
<event>
 5   0  0.2413800E+01  0.7576066E+02  0.7957747E-01  0.1339378E+00
       -2   -1    0    0    0  501  0.00000000000E+00  0.00000000000E+00  0.13606739922E+03  0.13606739922E+03  0.00000000000E+00 0.  1.
        1   -1    0    0  501    0  0.00000000000E+00  0.00000000000E+00 -0.10545652463E+02  0.10545652463E+02  0.00000000000E+00 0. -1.
      -24    2    1    2    0    0  0.00000000000E+00  0.00000000000E+00  0.12552174676E+03  0.14661305169E+03  0.75760662715E+02 0.  0.
       11    1    3    3    0    0  0.82933579190E+01 -0.29644829918E+02  0.20040241332E+02  0.36731553181E+02  0.00000000000E+00 0. -1.
      -12    1    3    3    0    0 -0.82933579190E+01  0.29644829918E+02  0.10548150543E+03  0.10988149851E+03  0.00000000000E+00 0.  1.
</event>
<event>
 5   0  0.2413800E+01  0.8060516E+02  0.7957747E-01  0.1325946E+00
        1   -1    0    0  501    0  0.00000000000E+00  0.00000000000E+00  0.19311729610E+03  0.19311729610E+03  0.00000000000E+00 0. -1.
       -2   -1    0    0    0  501  0.00000000000E+00  0.00000000000E+00 -0.84109390605E+01  0.84109390605E+01  0.00000000000E+00 0.  1.
      -24    2    1    2    0    0  0.00000000000E+00  0.00000000000E+00  0.18470635704E+03  0.20152823516E+03  0.80605156386E+02 0.  0.
       11    1    3    3    0    0 -0.25958060970E+02 -0.26323077062E+02  0.13247889665E+03  0.13754047903E+03  0.00000000000E+00 0. -1.
      -12    1    3    3    0    0  0.25958060970E+02  0.26323077062E+02  0.52227460389E+02  0.63987756126E+02  0.00000000000E+00 0.  1.
</event>
<event>
 5   0  0.2413800E+01  0.7920517E+02  0.7957747E-01  0.1329716E+00
       -2   -1    0    0    0  501  0.00000000000E+00  0.00000000000E+00  0.19480874988E+02  0.19480874988E+02  0.00000000000E+00 0.  1.
        1   -1    0    0  501    0  0.00000000000E+00  0.00000000000E+00 -0.80507920390E+02  0.80507920390E+02  0.00000000000E+00 0. -1.
      -24    2    1    2    0    0  0.00000000000E+00  0.00000000000E+00 -0.61027045403E+02  0.99988795378E+02  0.79205169848E+02 0.  0.
       11    1    3    3    0    0 -0.13430918915E+02  0.21406119073E+02 -0.69006513088E+02  0.73488164797E+02  0.00000000000E+00 0. -1.
      -12    1    3    3    0    0  0.13430918915E+02 -0.21406119073E+02  0.79794676855E+01  0.26500630581E+02  0.00000000000E+00 0.  1.
</event>
<event>
 5   0  0.2413800E+01  0.7827315E+02  0.7957747E-01  0.1332274E+00
        3   -1    0    0  501    0  0.00000000000E+00  0.00000000000E+00  0.14177047570E+03  0.14177047570E+03  0.00000000000E+00 0. -1.
       -4   -1    0    0    0  501  0.00000000000E+00  0.00000000000E+00 -0.10803883105E+02  0.10803883105E+02  0.00000000000E+00 0.  1.
      -24    2    1    2    0    0  0.00000000000E+00  0.00000000000E+00  0.13096659259E+03  0.15257435881E+03  0.78273153693E+02 0.  0.
       11    1    3    3    0    0 -0.35475222169E+02  0.91999400698E+01  0.92248591723E+02  0.99261941146E+02  0.00000000000E+00 0. -1.
      -12    1    3    3    0    0  0.35475222169E+02 -0.91999400698E+01  0.38718000871E+02  0.53312417659E+02  0.00000000000E+00 0.  1.
</event>
<event>
 5   0  0.2413800E+01  0.7573020E+02  0.7957747E-01  0.1339466E+00
       -2   -1    0    0    0  501  0.00000000000E+00  0.00000000000E+00  0.63269298503E+01  0.63269298503E+01  0.00000000000E+00 0.  1.
        1   -1    0    0  501    0  0.00000000000E+00  0.00000000000E+00 -0.22661320830E+03  0.22661320830E+03  0.00000000000E+00 0. -1.
      -24    2    1    2    0    0  0.00000000000E+00  0.00000000000E+00 -0.22028627845E+03  0.23294013815E+03  0.75730201956E+02 0.  0.
       11    1    3    3    0    0  0.27859854650E+02 -0.14407615029E+02 -0.17539437015E+03  0.17817669868E+03  0.00000000000E+00 0. -1.
      -12    1    3    3    0    0 -0.27859854650E+02  0.14407615029E+02 -0.44891908302E+02  0.54763439473E+02  0.00000000000E+00 0.  1.
</event>
<event>
 5   0  0.2413800E+01  0.8008402E+02  0.7957747E-01  0.1327339E+00
        1   -1    0    0  501    0  0.00000000000E+00  0.00000000000E+00  0.16226820942E+03  0.16226820942E+03  0.00000000000E+00 0. -1.
       -2   -1    0    0    0  501  0.00000000000E+00  0.00000000000E+00 -0.98809407617E+01  0.98809407617E+01  0.00000000000E+00 0.  1.
      -24    2    1    2    0    0  0.00000000000E+00  0.00000000000E+00  0.15238726866E+03  0.17214915018E+03  0.80084019998E+02 0.  0.
       11    1    3    3    0    0 -0.22892580373E+02 -0.10821395684E+02  0.14287267992E+03  0.14509919196E+03  0.00000000000E+00 0. -1.
      -12    1    3    3    0    0  0.22892580373E+02  0.10821395684E+02  0.95145887353E+01  0.27049958216E+02  0.00000000000E+00 0.  1.
</event>
<event>
 5   0  0.2413800E+01  0.8227853E+02  0.7957747E-01  0.1321553E+00
       -2   -1    0    0    0  501  0.00000000000E+00  0.00000000000E+00  0.28219145165E+02  0.28219145165E+02  0.00000000000E+00 0.  1.
        1   -1    0    0  501    0  0.00000000000E+00  0.00000000000E+00 -0.59974851838E+02  0.59974851838E+02  0.00000000000E+00 0. -1.
      -24    2    1    2    0    0  0.00000000000E+00  0.00000000000E+00 -0.31755706673E+02  0.88193997003E+02  0.82278528189E+02 0.  0.
       11    1    3    3    0    0  0.14334612611E+02 -0.59331252498E+01 -0.56719130952E+02  0.58802575708E+02  0.00000000000E+00 0. -1.
      -12    1    3    3    0    0 -0.14334612611E+02  0.59331252498E+01  0.24963424280E+02  0.29391421294E+02  0.00000000000E+00 0.  1.
</event>
<event>
 5   0  0.2413800E+01  0.7911688E+02  0.7957747E-01  0.1329956E+00
        1   -1    0    0  501    0  0.00000000000E+00  0.00000000000E+00  0.22840098424E+02  0.22840098424E+02  0.00000000000E+00 0. -1.
       -2   -1    0    0    0  501  0.00000000000E+00  0.00000000000E+00 -0.68514167343E+02  0.68514167343E+02  0.00000000000E+00 0.  1.
      -24    2    1    2    0    0  0.00000000000E+00  0.00000000000E+00 -0.45674068920E+02  0.91354265767E+02  0.79116883799E+02 0.  0.
       11    1    3    3    0    0  0.10801482260E+02  0.79888490565E+00  0.21094660413E+02  0.23712758888E+02  0.00000000000E+00 0. -1.
      -12    1    3    3    0    0 -0.10801482260E+02 -0.79888490565E+00 -0.66768729333E+02  0.67641506879E+02  0.00000000000E+00 0.  1.
</event>
<event>
 5   0  0.2413800E+01  0.8154843E+02  0.7957747E-01  0.1323455E+00
        1   -1    0    0  501    0  0.00000000000E+00  0.00000000000E+00  0.16560826043E+03  0.16560826043E+03  0.00000000000E+00 0. -1.
       -2   -1    0    0    0  501  0.00000000000E+00  0.00000000000E+00 -0.10038970732E+02  0.10038970732E+02  0.00000000000E+00 0.  1.
      -24    2    1    2    0    0  0.00000000000E+00  0.00000000000E+00  0.15556928970E+03  0.17564723116E+03  0.81548426826E+02 0.  0.
       11    1    3    3    0    0  0.32435186106E+02  0.17235650446E+02  0.11591705842E+03  0.12159717668E+03  0.00000000000E+00 0. -1.
      -12    1    3    3    0    0 -0.32435186106E+02 -0.17235650446E+02  0.39652231275E+02  0.54050054478E+02  0.00000000000E+00 0.  1.
</event>
<event>
 5   0  0.2413800E+01  0.8044050E+02  0.7957747E-01  0.1326385E+00
        1   -1    0    0  501    0  0.00000000000E+00  0.00000000000E+00  0.13708874146E+03  0.13708874146E+03  0.00000000000E+00 0. -1.
       -2   -1    0    0    0  501  0.00000000000E+00  0.00000000000E+00 -0.11800154901E+02  0.11800154901E+02  0.00000000000E+00 0.  1.
      -24    2    1    2    0    0  0.00000000000E+00  0.00000000000E+00  0.12528858656E+03  0.14888889636E+03  0.80440496875E+02 0.  0.
       11    1    3    3    0    0  0.30942710073E+02  0.23640416588E+02  0.81277804056E+02  0.90124369819E+02  0.00000000000E+00 0. -1.
      -12    1    3    3    0    0 -0.30942710073E+02 -0.23640416588E+02  0.44010782502E+02  0.58764526541E+02  0.00000000000E+00 0.  1.
</event>
<event>
 5   0  0.2413800E+01  0.8041904E+02  0.7957747E-01  0.1326442E+00
        1   -1    0    0  501    0  0.00000000000E+00  0.00000000000E+00  0.11849629421E+02  0.11849629421E+02  0.00000000000E+00 0. -1.
       -2   -1    0    0    0  501  0.00000000000E+00  0.00000000000E+00 -0.13644355058E+03  0.13644355058E+03  0.00000000000E+00 0.  1.
      -24    2    1    2    0    0  0.00000000000E+00  0.00000000000E+00 -0.12459392116E+03  0.14829318000E+03  0.80419040313E+02 0.  0.
       11    1    3    3    0    0 -0.31781144153E+02 -0.22113253718E+02 -0.82308323812E+02  0.90959866328E+02  0.00000000000E+00 0. -1.
      -12    1    3    3    0    0  0.31781144153E+02  0.22113253718E+02 -0.42285597348E+02  0.57333313673E+02  0.00000000000E+00 0.  1.
</event>
<event>
 5   0  0.2413800E+01  0.8095916E+02  0.7957747E-01  0.1325007E+00
       -2   -1    0    0    0  501  0.00000000000E+00  0.00000000000E+00  0.16877121765E+02  0.16877121765E+02  0.00000000000E+00 0.  1.
        1   -1    0    0  501    0  0.00000000000E+00  0.00000000000E+00 -0.97089808277E+02  0.97089808277E+02  0.00000000000E+00 0. -1.
      -24    2    1    2    0    0  0.00000000000E+00  0.00000000000E+00 -0.80212686511E+02  0.11396693004E+03  0.80959162951E+02 0.  0.
       11    1    3    3    0    0 -0.29792888816E+01  0.19238508090E+02 -0.90067121421E+02  0.92147071125E+02  0.00000000000E+00 0. -1.
      -12    1    3    3    0    0  0.29792888816E+01 -0.19238508090E+02  0.98544349102E+01  0.21819858917E+02  0.00000000000E+00 0.  1.
</event>
<event>
 5   0  0.2413800E+01  0.8302617E+02  0.7957747E-01  0.1319628E+00
        1   -1    0    0  501    0  0.00000000000E+00  0.00000000000E+00  0.98055284571E+02  0.98055284571E+02  0.00000000000E+00 0. -1.
       -2   -1    0    0    0  501  0.00000000000E+00  0.00000000000E+00 -0.17575147307E+02  0.17575147307E+02  0.00000000000E+00 0.  1.
      -24    2    1    2    0    0  0.00000000000E+00  0.00000000000E+00  0.80480137264E+02  0.11563043188E+03  0.83026166251E+02 0.  0.
       11    1    3    3    0    0  0.18561230757E+02 -0.37132371312E+02  0.40325740399E+02  0.57874844494E+02  0.00000000000E+00 0. -1.
      -12    1    3    3    0    0 -0.18561230757E+02  0.37132371312E+02  0.40154396866E+02  0.57755587384E+02  0.00000000000E+00 0.  1.
</event>
<event>
 5   0  0.2413800E+01  0.8038694E+02  0.7957747E-01  0.1326528E+00
       -4   -1    0    0    0  501  0.00000000000E+00  0.00000000000E+00  0.12217417184E+02  0.12217417184E+02  0.00000000000E+00 0.  1.
        3   -1    0    0  501    0  0.00000000000E+00  0.00000000000E+00 -0.13223049792E+03  0.13223049792E+03  0.00000000000E+00 0. -1.
      -24    2    1    2    0    0  0.00000000000E+00  0.00000000000E+00 -0.12001308074E+03  0.14444791510E+03  0.80386943158E+02 0.  0.
       11    1    3    3    0    0 -0.30283077654E+02  0.17350446351E+02 -0.95828262253E+02  0.10198607075E+03  0.00000000000E+00 0. -1.
      -12    1    3    3    0    0  0.30283077654E+02 -0.17350446351E+02 -0.24184818482E+02  0.42461844353E+02  0.00000000000E+00 0.  1.
</event>
<event>
 5   0  0.2413800E+01  0.7987525E+02  0.7957747E-01  0.1327900E+00
       -2   -1    0    0    0  501  0.00000000000E+00  0.00000000000E+00  0.42950143565E+02  0.42950143565E+02  0.00000000000E+00 0.  1.
        1   -1    0    0  501    0  0.00000000000E+00  0.00000000000E+00 -0.37136407081E+02  0.37136407081E+02  0.00000000000E+00 0. -1.
      -24    2    1    2    0    0  0.00000000000E+00  0.00000000000E+00  0.58137364842E+01  0.80086550646E+02  0.79875253129E+02 0.  0.
       11    1    3    3    0    0 -0.32158797488E+02 -0.21312351778E+01 -0.20741189015E+02  0.38326587912E+02  0.00000000000E+00 0. -1.
      -12    1    3    3    0    0  0.32158797488E+02  0.21312351778E+01  0.26554925499E+02  0.41759962734E+02  0.00000000000E+00 0.  1.
</event>
<event>
 5   0  0.2413800E+01  0.8045073E+02  0.7957747E-01  0.1326358E+00
        3   -1    0    0  501    0  0.00000000000E+00  0.00000000000E+00  0.10710115718E+02  0.10710115718E+02  0.00000000000E+00 0. -1.
       -4   -1    0    0    0  501  0.00000000000E+00  0.00000000000E+00 -0.15107958579E+03  0.15107958579E+03  0.00000000000E+00 0.  1.
      -24    2    1    2    0    0  0.00000000000E+00  0.00000000000E+00 -0.14036947007E+03  0.16178970151E+03  0.80450726447E+02 0.  0.
       11    1    3    3    0    0  0.49572514433E+01 -0.29124999254E+02 -0.15285162880E+02  0.33263735925E+02  0.00000000000E+00 0. -1.
      -12    1    3    3    0    0 -0.49572514433E+01  0.29124999254E+02 -0.12508430719E+03  0.12852596558E+03  0.00000000000E+00 0.  1.
</event>
<event>
 5   0  0.2413800E+01  0.7796811E+02  0.7957747E-01  0.1333120E+00
        3   -1    0    0  501    0  0.00000000000E+00  0.00000000000E+00  0.37712030362E+02  0.37712030362E+02  0.00000000000E+00 0. -1.
       -4   -1    0    0    0  501  0.00000000000E+00  0.00000000000E+00 -0.40298985441E+02  0.40298985441E+02  0.00000000000E+00 0.  1.
      -24    2    1    2    0    0  0.00000000000E+00  0.00000000000E+00 -0.25869550787E+01  0.78011015803E+02  0.77968110469E+02 0.  0.
       11    1    3    3    0    0  0.31997007883E+02 -0.16805572354E+01  0.20925132931E+02  0.38268707507E+02  0.00000000000E+00 0. -1.
      -12    1    3    3    0    0 -0.31997007883E+02  0.16805572354E+01 -0.23512088009E+02  0.39742308296E+02  0.00000000000E+00 0.  1.
</event>
<event>
 5   0  0.2413800E+01  0.8133221E+02  0.7957747E-01  0.1324023E+00
        3   -1    0    0  501    0  0.00000000000E+00  0.00000000000E+00  0.48105659832E+02  0.48105659832E+02  0.00000000000E+00 0. -1.
       -4   -1    0    0    0  501  0.00000000000E+00  0.00000000000E+00 -0.34377075523E+02  0.34377075523E+02  0.00000000000E+00 0.  1.
      -24    2    1    2    0    0  0.00000000000E+00  0.00000000000E+00  0.13728584308E+02  0.82482735355E+02  0.81332205211E+02 0.  0.
       11    1    3    3    0    0 -0.18201475434E+02  0.34100265846E+02  0.19676696641E+02  0.43373888798E+02  0.00000000000E+00 0. -1.
      -12    1    3    3    0    0  0.18201475434E+02 -0.34100265846E+02 -0.59481123329E+01  0.39108846557E+02  0.00000000000E+00 0.  1.
</event>
<event>
 5   0  0.2413800E+01  0.8211929E+02  0.7957747E-01  0.1321966E+00
        1   -1    0    0  501    0  0.00000000000E+00  0.00000000000E+00  0.70706948967E+02  0.70706948967E+02  0.00000000000E+00 0. -1.
       -2   -1    0    0    0  501  0.00000000000E+00  0.00000000000E+00 -0.23843408013E+02  0.23843408013E+02  0.00000000000E+00 0.  1.
      -24    2    1    2    0    0  0.00000000000E+00  0.00000000000E+00  0.46863540954E+02  0.94550356981E+02  0.82119294532E+02 0.  0.
       11    1    3    3    0    0  0.63087661893E+00  0.30976050271E+02  0.54454540395E+02  0.62651501700E+02  0.00000000000E+00 0. -1.
      -12    1    3    3    0    0 -0.63087661893E+00 -0.30976050271E+02 -0.75909994408E+01  0.31898855280E+02  0.00000000000E+00 0.  1.
</event>
<event>
 5   0  0.2413800E+01  0.8008681E+02  0.7957747E-01  0.1327332E+00
       -2   -1    0    0    0  501  0.00000000000E+00  0.00000000000E+00  0.12042786879E+03  0.12042786879E+03  0.00000000000E+00 0.  1.
        1   -1    0    0  501    0  0.00000000000E+00  0.00000000000E+00 -0.13314810096E+02  0.13314810096E+02  0.00000000000E+00 0. -1.
      -24    2    1    2    0    0  0.00000000000E+00  0.00000000000E+00  0.10711305870E+03  0.13374267889E+03  0.80086807982E+02 0.  0.
       11    1    3    3    0    0 -0.34494443383E+02  0.15236289372E+02  0.76052418049E+02  0.84888052335E+02  0.00000000000E+00 0. -1.
      -12    1    3    3    0    0  0.34494443383E+02 -0.15236289372E+02  0.31060640646E+02  0.48854626552E+02  0.00000000000E+00 0.  1.
</event>
<event>
 5   0  0.2413800E+01  0.8415780E+02  0.7957747E-01  0.1316758E+00
        1   -1    0    0  501    0  0.00000000000E+00  0.00000000000E+00  0.77845252206E+02  0.77845252206E+02  0.00000000000E+00 0. -1.
       -2   -1    0    0    0  501  0.00000000000E+00  0.00000000000E+00 -0.22745558947E+02  0.22745558947E+02  0.00000000000E+00 0.  1.
      -24    2    1    2    0    0  0.00000000000E+00  0.00000000000E+00  0.55099693259E+02  0.10059081115E+03  0.84157798754E+02 0.  0.
       11    1    3    3    0    0  0.73546229374E+01 -0.12808696608E+02  0.74645088501E+02  0.76092328291E+02  0.00000000000E+00 0. -1.
      -12    1    3    3    0    0 -0.73546229374E+01  0.12808696608E+02 -0.19545395243E+02  0.24498482862E+02  0.00000000000E+00 0.  1.
</event>
<event>
 5   0  0.2413800E+01  0.7654212E+02  0.7957747E-01  0.1337135E+00
        3   -1    0    0  501    0  0.00000000000E+00  0.00000000000E+00  0.24133458160E+02  0.24133458160E+02  0.00000000000E+00 0. -1.
       -4   -1    0    0    0  501  0.00000000000E+00  0.00000000000E+00 -0.60690594691E+02  0.60690594691E+02  0.00000000000E+00 0.  1.
      -24    2    1    2    0    0  0.00000000000E+00  0.00000000000E+00 -0.36557136531E+02  0.84824052851E+02  0.76542117235E+02 0.  0.
       11    1    3    3    0    0 -0.31239610993E+02 -0.11934685973E+01  0.61857384714E+01  0.31868495771E+02  0.00000000000E+00 0. -1.
      -12    1    3    3    0    0  0.31239610993E+02  0.11934685973E+01 -0.42742875002E+02  0.52955557080E+02  0.00000000000E+00 0.  1.
</event>
<event>
 5   0  0.2413800E+01  0.7792233E+02  0.7957747E-01  0.1333248E+00
       -2   -1    0    0    0  501  0.00000000000E+00  0.00000000000E+00  0.24038948268E+02  0.24038948268E+02  0.00000000000E+00 0.  1.
        1   -1    0    0  501    0  0.00000000000E+00  0.00000000000E+00 -0.63146378484E+02  0.63146378484E+02  0.00000000000E+00 0. -1.
      -24    2    1    2    0    0  0.00000000000E+00  0.00000000000E+00 -0.39107430216E+02  0.87185326752E+02  0.77922333787E+02 0.  0.
       11    1    3    3    0    0 -0.23074718026E+02 -0.53256044329E+01 -0.54169604934E+02  0.59119800180E+02  0.00000000000E+00 0. -1.
      -12    1    3    3    0    0  0.23074718026E+02  0.53256044329E+01  0.15062174718E+02  0.28065526573E+02  0.00000000000E+00 0.  1.
</event>
<event>
 5   0  0.2413800E+01  0.7982968E+02  0.7957747E-01  0.1328023E+00
       -2   -1    0    0    0  501  0.00000000000E+00  0.00000000000E+00  0.28912068983E+03  0.28912068983E+03  0.00000000000E+00 0.  1.
        1   -1    0    0  501    0  0.00000000000E+00  0.00000000000E+00 -0.55104819849E+01  0.55104819849E+01  0.00000000000E+00 0. -1.
      -24    2    1    2    0    0  0.00000000000E+00  0.00000000000E+00  0.28361020784E+03  0.29463117181E+03  0.79829677508E+02 0.  0.
       11    1    3    3    0    0  0.32436987161E+02 -0.17220468950E+02  0.84095731960E+02  0.91764888824E+02  0.00000000000E+00 0. -1.
      -12    1    3    3    0    0 -0.32436987161E+02  0.17220468950E+02  0.19951447588E+03  0.20286628299E+03  0.00000000000E+00 0.  1.
</event>
<event>
 5   0  0.2413800E+01  0.8106308E+02  0.7957747E-01  0.1324732E+00
        1   -1    0    0  501    0  0.00000000000E+00  0.00000000000E+00  0.51110910407E+02  0.51110910407E+02  0.00000000000E+00 0. -1.
       -2   -1    0    0    0  501  0.00000000000E+00  0.00000000000E+00 -0.32141975358E+02  0.32141975358E+02  0.00000000000E+00 0.  1.
      -24    2    1    2    0    0  0.00000000000E+00  0.00000000000E+00  0.18968935049E+02  0.83252885765E+02  0.81063077238E+02 0.  0.
       11    1    3    3    0    0 -0.18773112992E+02  0.21186330888E+02  0.39276984928E+02  0.48414583887E+02  0.00000000000E+00 0. -1.
      -12    1    3    3    0    0  0.18773112992E+02 -0.21186330888E+02 -0.20308049879E+02  0.34838301879E+02  0.00000000000E+00 0.  1.
</event>
<event>
 5   0  0.2413800E+01  0.8010812E+02  0.7957747E-01  0.1327274E+00
       -2   -1    0    0    0  501  0.00000000000E+00  0.00000000000E+00  0.10577015574E+02  0.10577015574E+02  0.00000000000E+00 0.  1.
        1   -1    0    0  501    0  0.00000000000E+00  0.00000000000E+00 -0.15168058442E+03  0.15168058442E+03  0.00000000000E+00 0. -1.
      -24    2    1    2    0    0  0.00000000000E+00  0.00000000000E+00 -0.14110356885E+03  0.16225759999E+03  0.80108124525E+02 0.  0.
       11    1    3    3    0    0  0.18471316570E+02  0.22353482404E+02 -0.12651745120E+03  0.12979804764E+03  0.00000000000E+00 0. -1.
      -12    1    3    3    0    0 -0.18471316570E+02 -0.22353482404E+02 -0.14586117645E+02  0.32459552360E+02  0.00000000000E+00 0.  1.
</event>
<event>
 5   0  0.2413800E+01  0.8087106E+02  0.7957747E-01  0.1325240E+00
        1   -1    0    0  501    0  0.00000000000E+00  0.00000000000E+00  0.41480945201E+02  0.41480945201E+02  0.00000000000E+00 0. -1.
       -2   -1    0    0    0  501  0.00000000000E+00  0.00000000000E+00 -0.39416464035E+02  0.39416464035E+02  0.00000000000E+00 0.  1.
      -24    2    1    2    0    0  0.00000000000E+00  0.00000000000E+00  0.20644811653E+01  0.80897409236E+02  0.80871062431E+02 0.  0.
       11    1    3    3    0    0  0.29744833447E+02  0.27160598498E+02  0.45800786019E+01  0.40539244536E+02  0.00000000000E+00 0. -1.
      -12    1    3    3    0    0 -0.29744833447E+02 -0.27160598498E+02 -0.25155974366E+01  0.40358164700E+02  0.00000000000E+00 0.  1.
</event>
<event>
 5   0  0.2413800E+01  0.8224458E+02  0.7957747E-01  0.1321641E+00
        1   -1    0    0  501    0  0.00000000000E+00  0.00000000000E+00  0.43109937099E+03  0.43109937099E+03  0.00000000000E+00 0. -1.
       -2   -1    0    0    0  501  0.00000000000E+00  0.00000000000E+00 -0.39226283678E+01  0.39226283678E+01  0.00000000000E+00 0.  1.
      -24    2    1    2    0    0  0.00000000000E+00  0.00000000000E+00  0.42717674262E+03  0.43502199936E+03  0.82244577255E+02 0.  0.
       11    1    3    3    0    0 -0.10405825495E+02  0.38016624595E+02  0.15156553536E+03  0.15660669353E+03  0.00000000000E+00 0. -1.
      -12    1    3    3    0    0  0.10405825495E+02 -0.38016624595E+02  0.27561120727E+03  0.27841530583E+03  0.00000000000E+00 0.  1.
</event>
<event>
 5   0  0.2413800E+01  0.8043283E+02  0.7957747E-01  0.1326405E+00
       -4   -1    0    0    0  501  0.00000000000E+00  0.00000000000E+00  0.56378866583E+02  0.56378866583E+02  0.00000000000E+00 0.  1.
        3   -1    0    0  501    0  0.00000000000E+00  0.00000000000E+00 -0.28687342133E+02  0.28687342133E+02  0.00000000000E+00 0. -1.
      -24    2    1    2    0    0  0.00000000000E+00  0.00000000000E+00  0.27691524450E+02  0.85066208715E+02  0.80432825008E+02 0.  0.
       11    1    3    3    0    0  0.12407000020E+02 -0.17319229177E+02 -0.22228830796E+02  0.30789775370E+02  0.00000000000E+00 0. -1.
      -12    1    3    3    0    0 -0.12407000020E+02  0.17319229177E+02  0.49920355247E+02  0.54276433345E+02  0.00000000000E+00 0.  1.
</event>
<event>
 5   0  0.2413800E+01  0.8411733E+02  0.7957747E-01  0.1316859E+00
        1   -1    0    0  501    0  0.00000000000E+00  0.00000000000E+00  0.49914877473E+01  0.49914877473E+01  0.00000000000E+00 0. -1.
       -2   -1    0    0    0  501  0.00000000000E+00  0.00000000000E+00 -0.35438959941E+03  0.35438959941E+03  0.00000000000E+00 0.  1.
      -24    2    1    2    0    0  0.00000000000E+00  0.00000000000E+00 -0.34939811166E+03  0.35938108716E+03  0.84117330991E+02 0.  0.
       11    1    3    3    0    0 -0.20011079919E+02 -0.58376959673E+01 -0.18630910734E+02  0.27957697482E+02  0.00000000000E+00 0. -1.
      -12    1    3    3    0    0  0.20011079919E+02  0.58376959673E+01 -0.33076720093E+03  0.33142338968E+03  0.00000000000E+00 0.  1.
</event>
<event>
 5   0  0.2413800E+01  0.7977477E+02  0.7957747E-01  0.1328171E+00
       -2   -1    0    0    0  501  0.00000000000E+00  0.00000000000E+00  0.62011339197E+03  0.62011339197E+03  0.00000000000E+00 0.  1.
        1   -1    0    0  501    0  0.00000000000E+00  0.00000000000E+00 -0.25656655239E+01  0.25656655239E+01  0.00000000000E+00 0. -1.
      -24    2    1    2    0    0  0.00000000000E+00  0.00000000000E+00  0.61754772645E+03  0.62267905749E+03  0.79774771719E+02 0.  0.
       11    1    3    3    0    0 -0.81611509240E+01  0.81175188076E+01  0.10680258666E+02  0.15702433607E+02  0.00000000000E+00 0. -1.
      -12    1    3    3    0    0  0.81611509240E+01 -0.81175188076E+01  0.60686746778E+03  0.60697662389E+03  0.00000000000E+00 0.  1.
</event>
<event>
 5   0  0.2413800E+01  0.8035028E+02  0.7957747E-01  0.1326626E+00
        1   -1    0    0  501    0  0.00000000000E+00  0.00000000000E+00  0.82335909857E+02  0.82335909857E+02  0.00000000000E+00 0. -1.
       -2   -1    0    0    0  501  0.00000000000E+00  0.00000000000E+00 -0.19603133225E+02  0.19603133225E+02  0.00000000000E+00 0.  1.
      -24    2    1    2    0    0  0.00000000000E+00  0.00000000000E+00  0.62732776632E+02  0.10193904308E+03  0.80350278409E+02 0.  0.
       11    1    3    3    0    0 -0.28615492150E+02  0.13086835909E+02  0.63056308915E+02  0.70471339984E+02  0.00000000000E+00 0. -1.
      -12    1    3    3    0    0  0.28615492150E+02 -0.13086835909E+02 -0.32353228271E+00  0.31467703098E+02  0.00000000000E+00 0.  1.
</event>
<event>
 5   0  0.2413800E+01  0.7992171E+02  0.7957747E-01  0.1327775E+00
        1   -1    0    0  501    0  0.00000000000E+00  0.00000000000E+00  0.88908249796E+02  0.88908249796E+02  0.00000000000E+00 0. -1.
       -2   -1    0    0    0  501  0.00000000000E+00  0.00000000000E+00 -0.17960874686E+02  0.17960874686E+02  0.00000000000E+00 0.  1.
      -24    2    1    2    0    0  0.00000000000E+00  0.00000000000E+00  0.70947375110E+02  0.10686912448E+03  0.79921710020E+02 0.  0.
       11    1    3    3    0    0  0.48083157659E+01 -0.39425853957E+02  0.41356042461E+02  0.57339690519E+02  0.00000000000E+00 0. -1.
      -12    1    3    3    0    0 -0.48083157659E+01  0.39425853957E+02  0.29591332649E+02  0.49529433963E+02  0.00000000000E+00 0.  1.
</event>
<event>
 5   0  0.2413800E+01  0.8133294E+02  0.7957747E-01  0.1324021E+00
       -4   -1    0    0    0  501  0.00000000000E+00  0.00000000000E+00  0.43173626057E+03  0.43173626057E+03  0.00000000000E+00 0.  1.
        3   -1    0    0  501    0  0.00000000000E+00  0.00000000000E+00 -0.38304907330E+01  0.38304907330E+01  0.00000000000E+00 0. -1.
      -24    2    1    2    0    0  0.00000000000E+00  0.00000000000E+00  0.42790576984E+03  0.43556675131E+03  0.81332939089E+02 0.  0.
       11    1    3    3    0    0 -0.26937344011E+02 -0.25399896035E+02  0.12386401652E+03  0.12927903855E+03  0.00000000000E+00 0. -1.
      -12    1    3    3    0    0  0.26937344011E+02  0.25399896035E+02  0.30404175332E+03  0.30628771276E+03  0.00000000000E+00 0.  1.
</event>
<event>
 5   0  0.2413800E+01  0.8130449E+02  0.7957747E-01  0.1324096E+00
        1   -1    0    0  501    0  0.00000000000E+00  0.00000000000E+00  0.11713096220E+02  0.11713096220E+02  0.00000000000E+00 0. -1.
       -2   -1    0    0    0  501  0.00000000000E+00  0.00000000000E+00 -0.14109035475E+03  0.14109035475E+03  0.00000000000E+00 0.  1.
      -24    2    1    2    0    0  0.00000000000E+00  0.00000000000E+00 -0.12937725853E+03  0.15280345097E+03  0.81304486983E+02 0.  0.
       11    1    3    3    0    0  0.29781337336E+02 -0.48273671463E+01 -0.13481569232E+02  0.33045184763E+02  0.00000000000E+00 0. -1.
      -12    1    3    3    0    0 -0.29781337336E+02  0.48273671463E+01 -0.11589568930E+03  0.11975826621E+03  0.00000000000E+00 0.  1.
</event>
<event>
 4   0  0.2413800E+01  0.4878330E+02  0.7957747E-01  0.1443202E+00
        3   -1    0    0  501    0  0.00000000000E+00  0.00000000000E+00  0.13788318225E+02  0.13788318225E+02  0.00000000000E+00 0. -1.
       -4   -1    0    0    0  501  0.00000000000E+00  0.00000000000E+00 -0.43149025185E+02  0.43149025185E+02  0.00000000000E+00 0.  1.
       11    1    1    2    0    0  0.36692401174E+01  0.18300869309E+02  0.36467505286E+01  0.19017989639E+02  0.00000000000E+00 0. -1.
      -12    1    1    2    0    0 -0.36692401174E+01 -0.18300869309E+02 -0.33007457489E+02  0.37919353770E+02  0.00000000000E+00 0.  1.
</event>
<event>
 5   0  0.2413800E+01  0.8027955E+02  0.7957747E-01  0.1326815E+00
        1   -1    0    0  501    0  0.00000000000E+00  0.00000000000E+00  0.34243730675E+02  0.34243730675E+02  0.00000000000E+00 0. -1.
       -2   -1    0    0    0  501  0.00000000000E+00  0.00000000000E+00 -0.47050988873E+02  0.47050988873E+02  0.00000000000E+00 0.  1.
      -24    2    1    2    0    0  0.00000000000E+00  0.00000000000E+00 -0.12807258198E+02  0.81294719549E+02  0.80279546361E+02 0.  0.
       11    1    3    3    0    0  0.14192102683E+02 -0.23541997211E+00  0.31617536580E+02  0.34657464139E+02  0.00000000000E+00 0. -1.
      -12    1    3    3    0    0 -0.14192102683E+02  0.23541997211E+00 -0.44424794778E+02  0.46637255410E+02  0.00000000000E+00 0.  1.
</event>
<event>
 5   0  0.2413800E+01  0.8074825E+02  0.7957747E-01  0.1325566E+00
        1   -1    0    0  501    0  0.00000000000E+00  0.00000000000E+00  0.57987102404E+01  0.57987102404E+01  0.00000000000E+00 0. -1.
       -2   -1    0    0    0  501  0.00000000000E+00  0.00000000000E+00 -0.28110907945E+03  0.28110907945E+03  0.00000000000E+00 0.  1.
      -24    2    1    2    0    0  0.00000000000E+00  0.00000000000E+00 -0.27531036921E+03  0.28690778969E+03  0.80748253175E+02 0.  0.
       11    1    3    3    0    0 -0.31351882679E+02 -0.77441046215E+00 -0.47310316063E+02  0.56760957225E+02  0.00000000000E+00 0. -1.
      -12    1    3    3    0    0  0.31351882679E+02  0.77441046215E+00 -0.22800005315E+03  0.23014683247E+03  0.00000000000E+00 0.  1.
</event>
<event>
 5   0  0.2413800E+01  0.8196393E+02  0.7957747E-01  0.1322370E+00
        1   -1    0    0  501    0  0.00000000000E+00  0.00000000000E+00  0.10032639116E+02  0.10032639116E+02  0.00000000000E+00 0. -1.
       -2   -1    0    0    0  501  0.00000000000E+00  0.00000000000E+00 -0.16740575688E+03  0.16740575688E+03  0.00000000000E+00 0.  1.
      -24    2    1    2    0    0  0.00000000000E+00  0.00000000000E+00 -0.15737311776E+03  0.17743839599E+03  0.81963932183E+02 0.  0.
       11    1    3    3    0    0  0.20495108182E+02 -0.17983780949E+02 -0.12453369946E+02  0.29975861283E+02  0.00000000000E+00 0. -1.
      -12    1    3    3    0    0 -0.20495108182E+02  0.17983780949E+02 -0.14491974781E+03  0.14746253471E+03  0.00000000000E+00 0.  1.
</event>
<event>
 5   0  0.2413800E+01  0.8036536E+02  0.7957747E-01  0.1326586E+00
       -2   -1    0    0    0  501  0.00000000000E+00  0.00000000000E+00  0.38956719436E+01  0.38956719436E+01  0.00000000000E+00 0.  1.
        1   -1    0    0  501    0  0.00000000000E+00  0.00000000000E+00 -0.41447220288E+03  0.41447220288E+03  0.00000000000E+00 0. -1.
      -24    2    1    2    0    0  0.00000000000E+00  0.00000000000E+00 -0.41057653094E+03  0.41836787483E+03  0.80365359009E+02 0.  0.
       11    1    3    3    0    0  0.35390156594E+02 -0.11351356971E+02 -0.12576835408E+03  0.13114494034E+03  0.00000000000E+00 0. -1.
      -12    1    3    3    0    0 -0.35390156594E+02  0.11351356971E+02 -0.28480817686E+03  0.28722293449E+03  0.00000000000E+00 0.  1.
</event>
<event>
 5   0  0.2413800E+01  0.7895256E+02  0.7957747E-01  0.1330405E+00
        1   -1    0    0  501    0  0.00000000000E+00  0.00000000000E+00  0.41267315367E+02  0.41267315367E+02  0.00000000000E+00 0. -1.
       -2   -1    0    0    0  501  0.00000000000E+00  0.00000000000E+00 -0.37762979526E+02  0.37762979526E+02  0.00000000000E+00 0.  1.
      -24    2    1    2    0    0  0.00000000000E+00  0.00000000000E+00  0.35043358402E+01  0.79030294893E+02  0.78952562601E+02 0.  0.
       11    1    3    3    0    0 -0.77325193444E+01  0.37260554798E+02  0.12261837625E+02  0.39981163830E+02  0.00000000000E+00 0. -1.
      -12    1    3    3    0    0  0.77325193444E+01 -0.37260554798E+02 -0.87575017851E+01  0.39049131063E+02  0.00000000000E+00 0.  1.
</event>
<event>
 5   0  0.2413800E+01  0.7956128E+02  0.7957747E-01  0.1328748E+00
        1   -1    0    0  501    0  0.00000000000E+00  0.00000000000E+00  0.19864702586E+03  0.19864702586E+03  0.00000000000E+00 0. -1.
       -2   -1    0    0    0  501  0.00000000000E+00  0.00000000000E+00 -0.79663885548E+01  0.79663885548E+01  0.00000000000E+00 0.  1.
      -24    2    1    2    0    0  0.00000000000E+00  0.00000000000E+00  0.19068063730E+03  0.20661341441E+03  0.79561281871E+02 0.  0.
       11    1    3    3    0    0 -0.26084009228E+02 -0.12218258550E+02  0.16659403377E+03  0.16906576670E+03  0.00000000000E+00 0. -1.
      -12    1    3    3    0    0  0.26084009228E+02  0.12218258550E+02  0.24086603527E+02  0.37547647714E+02  0.00000000000E+00 0.  1.
</event>
<event>
 5   0  0.2413800E+01  0.7434835E+02  0.7957747E-01  0.1343510E+00
        1   -1    0    0  501    0  0.00000000000E+00  0.00000000000E+00  0.14534629556E+03  0.14534629556E+03  0.00000000000E+00 0. -1.
       -2   -1    0    0    0  501  0.00000000000E+00  0.00000000000E+00 -0.95077706306E+01  0.95077706306E+01  0.00000000000E+00 0.  1.
      -24    2    1    2    0    0  0.00000000000E+00  0.00000000000E+00  0.13583852493E+03  0.15485406619E+03  0.74348348744E+02 0.  0.
       11    1    3    3    0    0 -0.30034371860E+02  0.90821628374E+01  0.26400073622E+02  0.41006256377E+02  0.00000000000E+00 0. -1.
      -12    1    3    3    0    0  0.30034371860E+02 -0.90821628374E+01  0.10943845131E+03  0.11384780982E+03  0.00000000000E+00 0.  1.
</event>
<event>
 5   0  0.2413800E+01  0.8010815E+02  0.7957747E-01  0.1327274E+00
        3   -1    0    0  501    0  0.00000000000E+00  0.00000000000E+00  0.10911986387E+02  0.10911986387E+02  0.00000000000E+00 0. -1.
       -4   -1    0    0    0  501  0.00000000000E+00  0.00000000000E+00 -0.14702447018E+03  0.14702447018E+03  0.00000000000E+00 0.  1.
      -24    2    1    2    0    0  0.00000000000E+00  0.00000000000E+00 -0.13611248380E+03  0.15793645657E+03  0.80108152323E+02 0.  0.
       11    1    3    3    0    0  0.14676615949E+02 -0.26899203463E+02 -0.17201244970E+02  0.35140475683E+02  0.00000000000E+00 0. -1.
      -12    1    3    3    0    0 -0.14676615949E+02  0.26899203463E+02 -0.11891123883E+03  0.12279598089E+03  0.00000000000E+00 0.  1.
</event>
<event>
 5   0  0.2413800E+01  0.8046186E+02  0.7957747E-01  0.1326328E+00
        1   -1    0    0  501    0  0.00000000000E+00  0.00000000000E+00  0.23819593299E+02  0.23819593299E+02  0.00000000000E+00 0. -1.
       -2   -1    0    0    0  501  0.00000000000E+00  0.00000000000E+00 -0.67949433942E+02  0.67949433942E+02  0.00000000000E+00 0.  1.
      -24    2    1    2    0    0  0.00000000000E+00  0.00000000000E+00 -0.44129840643E+02  0.91769027241E+02  0.80461863796E+02 0.  0.
       11    1    3    3    0    0 -0.50800013889E+01 -0.39079936049E+02 -0.12835793943E+02  0.41446416273E+02  0.00000000000E+00 0. -1.
      -12    1    3    3    0    0  0.50800013889E+01  0.39079936049E+02 -0.31294046700E+02  0.50322610968E+02  0.00000000000E+00 0.  1.
</event>
<event>
 5   0  0.2413800E+01  0.8464449E+02  0.7957747E-01  0.1315539E+00
        1   -1    0    0  501    0  0.00000000000E+00  0.00000000000E+00  0.19658660307E+03  0.19658660307E+03  0.00000000000E+00 0. -1.
       -2   -1    0    0    0  501  0.00000000000E+00  0.00000000000E+00 -0.91113659077E+01  0.91113659077E+01  0.00000000000E+00 0.  1.
      -24    2    1    2    0    0  0.00000000000E+00  0.00000000000E+00  0.18747523716E+03  0.20569796898E+03  0.84644491212E+02 0.  0.
       11    1    3    3    0    0 -0.30669301059E+02 -0.38493909858E+01  0.16399130900E+03  0.16687891798E+03  0.00000000000E+00 0. -1.
      -12    1    3    3    0    0  0.30669301059E+02  0.38493909858E+01  0.23483928159E+02  0.38819050995E+02  0.00000000000E+00 0.  1.
</event>
<event>
 5   0  0.2413800E+01  0.7930792E+02  0.7957747E-01  0.1329436E+00
       -2   -1    0    0    0  501  0.00000000000E+00  0.00000000000E+00  0.10630863733E+03  0.10630863733E+03  0.00000000000E+00 0.  1.
        1   -1    0    0  501    0  0.00000000000E+00  0.00000000000E+00 -0.14791241356E+02  0.14791241356E+02  0.00000000000E+00 0. -1.
      -24    2    1    2    0    0  0.00000000000E+00  0.00000000000E+00  0.91517395978E+02  0.12109987869E+03  0.79307924270E+02 0.  0.
       11    1    3    3    0    0  0.34228385024E+02  0.19667942927E+02  0.51477434956E+02  0.64871693596E+02  0.00000000000E+00 0. -1.
      -12    1    3    3    0    0 -0.34228385024E+02 -0.19667942927E+02  0.40039961022E+02  0.56228185094E+02  0.00000000000E+00 0.  1.
</event>
<event>
 5   0  0.2413800E+01  0.8211211E+02  0.7957747E-01  0.1321984E+00
       -2   -1    0    0    0  501  0.00000000000E+00  0.00000000000E+00  0.16801175069E+02  0.16801175069E+02  0.00000000000E+00 0.  1.
        1   -1    0    0  501    0  0.00000000000E+00  0.00000000000E+00 -0.10032629784E+03  0.10032629784E+03  0.00000000000E+00 0. -1.
      -24    2    1    2    0    0  0.00000000000E+00  0.00000000000E+00 -0.83525122768E+02  0.11712747291E+03  0.82112111020E+02 0.  0.
       11    1    3    3    0    0 -0.93355095569E+01 -0.36198389614E+02 -0.17549947083E+02  0.41297406601E+02  0.00000000000E+00 0. -1.
      -12    1    3    3    0    0  0.93355095569E+01  0.36198389614E+02 -0.65975175685E+02  0.75830066306E+02  0.00000000000E+00 0.  1.
</event>
<event>
 5   0  0.2413800E+01  0.8310295E+02  0.7957747E-01  0.1319432E+00
       -2   -1    0    0    0  501  0.00000000000E+00  0.00000000000E+00  0.62264333573E+01  0.62264333573E+01  0.00000000000E+00 0.  1.
        1   -1    0    0  501    0  0.00000000000E+00  0.00000000000E+00 -0.27728957687E+03  0.27728957687E+03  0.00000000000E+00 0. -1.
      -24    2    1    2    0    0  0.00000000000E+00  0.00000000000E+00 -0.27106314352E+03  0.28351601023E+03  0.83102949913E+02 0.  0.
       11    1    3    3    0    0  0.87243567455E+01 -0.36272876173E+02 -0.19794556200E+03  0.20143058720E+03  0.00000000000E+00 0. -1.
      -12    1    3    3    0    0 -0.87243567455E+01  0.36272876173E+02 -0.73117581519E+02  0.82085423028E+02  0.00000000000E+00 0.  1.
</event>
<event>
 5   0  0.2413800E+01  0.7492176E+02  0.7957747E-01  0.1341820E+00
        1   -1    0    0  501    0  0.00000000000E+00  0.00000000000E+00  0.42852141109E+03  0.42852141109E+03  0.00000000000E+00 0. -1.
       -2   -1    0    0    0  501  0.00000000000E+00  0.00000000000E+00 -0.32747901688E+01  0.32747901688E+01  0.00000000000E+00 0.  1.
      -24    2    1    2    0    0  0.00000000000E+00  0.00000000000E+00  0.42524662092E+03  0.43179620126E+03  0.74921764640E+02 0.  0.
       11    1    3    3    0    0 -0.27174591105E+02 -0.25099344584E+02  0.17858462516E+03  0.18237572164E+03  0.00000000000E+00 0. -1.
      -12    1    3    3    0    0  0.27174591105E+02  0.25099344584E+02  0.24666199577E+03  0.24942047962E+03  0.00000000000E+00 0.  1.
</event>
<event>
 5   0  0.2413800E+01  0.8123049E+02  0.7957747E-01  0.1324290E+00
       -4   -1    0    0    0  501  0.00000000000E+00  0.00000000000E+00  0.25490325599E+02  0.25490325599E+02  0.00000000000E+00 0.  1.
        3   -1    0    0  501    0  0.00000000000E+00  0.00000000000E+00 -0.64714675931E+02  0.64714675931E+02  0.00000000000E+00 0. -1.
      -24    2    1    2    0    0  0.00000000000E+00  0.00000000000E+00 -0.39224350332E+02  0.90205001529E+02  0.81230490839E+02 0.  0.
       11    1    3    3    0    0  0.21972765293E+02  0.72894278486E+00 -0.57535818031E+02  0.61593052601E+02  0.00000000000E+00 0. -1.
      -12    1    3    3    0    0 -0.21972765293E+02 -0.72894278486E+00  0.18311467699E+02  0.28611948929E+02  0.00000000000E+00 0.  1.
</event>
<event>
 5   0  0.2413800E+01  0.7734548E+02  0.7957747E-01  0.1334861E+00
       -2   -1    0    0    0  501  0.00000000000E+00  0.00000000000E+00  0.12596031360E+02  0.12596031360E+02  0.00000000000E+00 0.  1.
        1   -1    0    0  501    0  0.00000000000E+00  0.00000000000E+00 -0.11873428058E+03  0.11873428058E+03  0.00000000000E+00 0. -1.
      -24    2    1    2    0    0  0.00000000000E+00  0.00000000000E+00 -0.10613824922E+03  0.13133031194E+03  0.77345477480E+02 0.  0.
       11    1    3    3    0    0  0.19839711801E+02  0.23307709484E+02 -0.93204385056E+02  0.98101584490E+02  0.00000000000E+00 0. -1.
      -12    1    3    3    0    0 -0.19839711801E+02 -0.23307709484E+02 -0.12933864164E+02  0.33228727450E+02  0.00000000000E+00 0.  1.
</event>
<event>
 5   0  0.2413800E+01  0.8038572E+02  0.7957747E-01  0.1326531E+00
       -2   -1    0    0    0  501  0.00000000000E+00  0.00000000000E+00  0.76634808752E+02  0.76634808752E+02  0.00000000000E+00 0.  1.
        1   -1    0    0  501    0  0.00000000000E+00  0.00000000000E+00 -0.21080056835E+02  0.21080056835E+02  0.00000000000E+00 0. -1.
      -24    2    1    2    0    0  0.00000000000E+00  0.00000000000E+00  0.55554751917E+02  0.97714865587E+02  0.80385723212E+02 0.  0.
       11    1    3    3    0    0  0.11254766642E+02 -0.36791235431E+02  0.13643143640E+02  0.40821564707E+02  0.00000000000E+00 0. -1.
      -12    1    3    3    0    0 -0.11254766642E+02  0.36791235431E+02  0.41911608277E+02  0.56893300881E+02  0.00000000000E+00 0.  1.
</event>
<event>
 5   0  0.2413800E+01  0.8071206E+02  0.7957747E-01  0.1325662E+00
       -2   -1    0    0    0  501  0.00000000000E+00  0.00000000000E+00  0.70206598865E+01  0.70206598865E+01  0.00000000000E+00 0.  1.
        1   -1    0    0  501    0  0.00000000000E+00  0.00000000000E+00 -0.23197380385E+03  0.23197380385E+03  0.00000000000E+00 0. -1.
      -24    2    1    2    0    0  0.00000000000E+00  0.00000000000E+00 -0.22495314396E+03  0.23899446374E+03  0.80712060546E+02 0.  0.
       11    1    3    3    0    0 -0.37992028278E+02 -0.10243382285E+02 -0.13900887560E+03  0.14447071880E+03  0.00000000000E+00 0. -1.
      -12    1    3    3    0    0  0.37992028278E+02  0.10243382285E+02 -0.85944268361E+02  0.94523744940E+02  0.00000000000E+00 0.  1.
</event>
<event>
 5   0  0.2413800E+01  0.8122253E+02  0.7957747E-01  0.1324311E+00
        1   -1    0    0  501    0  0.00000000000E+00  0.00000000000E+00  0.49757969844E+01  0.49757969844E+01  0.00000000000E+00 0. -1.
       -2   -1    0    0    0  501  0.00000000000E+00  0.00000000000E+00 -0.33145946733E+03  0.33145946733E+03  0.00000000000E+00 0.  1.
      -24    2    1    2    0    0  0.00000000000E+00  0.00000000000E+00 -0.32648367035E+03  0.33643526432E+03  0.81222534262E+02 0.  0.
       11    1    3    3    0    0  0.20295127793E+02 -0.11355220917E+02 -0.25336389682E+02  0.34391363688E+02  0.00000000000E+00 0. -1.
      -12    1    3    3    0    0 -0.20295127793E+02  0.11355220917E+02 -0.30114728067E+03  0.30204390063E+03  0.00000000000E+00 0.  1.
</event>
<event>
 5   0  0.2413800E+01  0.8211008E+02  0.7957747E-01  0.1321990E+00
        1   -1    0    0  501    0  0.00000000000E+00  0.00000000000E+00  0.19838016663E+02  0.19838016663E+02  0.00000000000E+00 0. -1.
       -2   -1    0    0    0  501  0.00000000000E+00  0.00000000000E+00 -0.84963944241E+02  0.84963944241E+02  0.00000000000E+00 0.  1.
      -24    2    1    2    0    0  0.00000000000E+00  0.00000000000E+00 -0.65125927578E+02  0.10480196090E+03  0.82110075913E+02 0.  0.
       11    1    3    3    0    0 -0.31623441933E+02  0.96843937505E+01 -0.15160229282E+01  0.33107822151E+02  0.00000000000E+00 0. -1.
      -12    1    3    3    0    0  0.31623441933E+02 -0.96843937505E+01 -0.63609904650E+02  0.71694138753E+02  0.00000000000E+00 0.  1.
</event>
<event>
 5   0  0.2413800E+01  0.8032667E+02  0.7957747E-01  0.1326689E+00
       -2   -1    0    0    0  501  0.00000000000E+00  0.00000000000E+00  0.70526058472E+02  0.70526058472E+02  0.00000000000E+00 0.  1.
        1   -1    0    0  501    0  0.00000000000E+00  0.00000000000E+00 -0.22872306409E+02  0.22872306409E+02  0.00000000000E+00 0. -1.
      -24    2    1    2    0    0  0.00000000000E+00  0.00000000000E+00  0.47653752062E+02  0.93398364881E+02  0.80326673508E+02 0.  0.
       11    1    3    3    0    0 -0.11534282541E+02 -0.27382889385E+02 -0.75933798274E+01  0.30667926601E+02  0.00000000000E+00 0. -1.
      -12    1    3    3    0    0  0.11534282541E+02  0.27382889385E+02  0.55247131890E+02  0.62730438280E+02  0.00000000000E+00 0.  1.
</event>
<event>
 5   0  0.2413800E+01  0.8161768E+02  0.7957747E-01  0.1323274E+00
       -2   -1    0    0    0  501  0.00000000000E+00  0.00000000000E+00  0.46928495811E+02  0.46928495811E+02  0.00000000000E+00 0.  1.
        1   -1    0    0  501    0  0.00000000000E+00  0.00000000000E+00 -0.35487207748E+02  0.35487207748E+02  0.00000000000E+00 0. -1.
      -24    2    1    2    0    0  0.00000000000E+00  0.00000000000E+00  0.11441288063E+02  0.82415703559E+02  0.81617676520E+02 0.  0.
       11    1    3    3    0    0  0.12179683652E+02  0.38681598162E+02  0.11208270934E+01  0.40569286210E+02  0.00000000000E+00 0. -1.
      -12    1    3    3    0    0 -0.12179683652E+02 -0.38681598162E+02  0.10320460970E+02  0.41846417348E+02  0.00000000000E+00 0.  1.
</event>
<event>
 5   0  0.2413800E+01  0.6810444E+02  0.7957747E-01  0.1363111E+00
       -4   -1    0    0    0  501  0.00000000000E+00  0.00000000000E+00  0.10324895613E+02  0.10324895613E+02  0.00000000000E+00 0.  1.
        3   -1    0    0  501    0  0.00000000000E+00  0.00000000000E+00 -0.11230656327E+03  0.11230656327E+03  0.00000000000E+00 0. -1.
      -24    2    1    2    0    0  0.00000000000E+00  0.00000000000E+00 -0.10198166766E+03  0.12263145888E+03  0.68104435757E+02 0.  0.
       11    1    3    3    0    0  0.25472882003E+02  0.13209569346E+02 -0.84006563145E+02  0.88771972442E+02  0.00000000000E+00 0. -1.
      -12    1    3    3    0    0 -0.25472882003E+02 -0.13209569346E+02 -0.17975104510E+02  0.33859486440E+02  0.00000000000E+00 0.  1.
</event>
<event>
 5   0  0.2413800E+01  0.7990334E+02  0.7957747E-01  0.1327825E+00
       -2   -1    0    0    0  501  0.00000000000E+00  0.00000000000E+00  0.67524554886E+02  0.67524554886E+02  0.00000000000E+00 0.  1.
        1   -1    0    0  501    0  0.00000000000E+00  0.00000000000E+00 -0.23637861795E+02  0.23637861795E+02  0.00000000000E+00 0. -1.
      -24    2    1    2    0    0  0.00000000000E+00  0.00000000000E+00  0.43886693091E+02  0.91162416681E+02  0.79903344014E+02 0.  0.
       11    1    3    3    0    0  0.29317699655E+01  0.15545111526E+02 -0.19912459572E+02  0.25431315611E+02  0.00000000000E+00 0. -1.
      -12    1    3    3    0    0 -0.29317699655E+01 -0.15545111526E+02  0.63799152663E+02  0.65731101071E+02  0.00000000000E+00 0.  1.
</event>
<event>
 5   0  0.2413800E+01  0.1004582E+03  0.7957747E-01  0.1280337E+00
        1   -1    0    0  501    0  0.00000000000E+00  0.00000000000E+00  0.62119238464E+01  0.62119238464E+01  0.00000000000E+00 0. -1.
       -2   -1    0    0    0  501  0.00000000000E+00  0.00000000000E+00 -0.40614821121E+03  0.40614821121E+03  0.00000000000E+00 0.  1.
      -24    2    1    2    0    0  0.00000000000E+00  0.00000000000E+00 -0.39993628736E+03  0.41236013505E+03  0.10045818550E+03 0.  0.
       11    1    3    3    0    0 -0.26476670114E+02 -0.41365071696E+02 -0.24319116253E+03  0.24810083585E+03  0.00000000000E+00 0. -1.
      -12    1    3    3    0    0  0.26476670114E+02  0.41365071696E+02 -0.15674512483E+03  0.16425929921E+03  0.00000000000E+00 0.  1.
</event>
<event>
 5   0  0.2413800E+01  0.8080391E+02  0.7957747E-01  0.1325418E+00
        1   -1    0    0  501    0  0.00000000000E+00  0.00000000000E+00  0.26935573619E+02  0.26935573619E+02  0.00000000000E+00 0. -1.
       -2   -1    0    0    0  501  0.00000000000E+00  0.00000000000E+00 -0.60600824887E+02  0.60600824887E+02  0.00000000000E+00 0.  1.
      -24    2    1    2    0    0  0.00000000000E+00  0.00000000000E+00 -0.33665251268E+02  0.87536398506E+02  0.80803910305E+02 0.  0.
       11    1    3    3    0    0 -0.19298082091E+02 -0.43427491587E+00  0.21617005120E+02  0.28981019262E+02  0.00000000000E+00 0. -1.
      -12    1    3    3    0    0  0.19298082091E+02  0.43427491587E+00 -0.55282256388E+02  0.58555379244E+02  0.00000000000E+00 0.  1.
</event>
<event>
 5   0  0.2413800E+01  0.7847787E+02  0.7957747E-01  0.1331709E+00
       -2   -1    0    0    0  501  0.00000000000E+00  0.00000000000E+00  0.68147941605E+02  0.68147941605E+02  0.00000000000E+00 0.  1.
        1   -1    0    0  501    0  0.00000000000E+00  0.00000000000E+00 -0.22593407282E+02  0.22593407282E+02  0.00000000000E+00 0. -1.
      -24    2    1    2    0    0  0.00000000000E+00  0.00000000000E+00  0.45554534323E+02  0.90741348888E+02  0.78477874592E+02 0.  0.
       11    1    3    3    0    0 -0.36828354374E+02 -0.73077794593E+01  0.95956816601E+01  0.38753173200E+02  0.00000000000E+00 0. -1.
      -12    1    3    3    0    0  0.36828354374E+02  0.73077794593E+01  0.35958852663E+02  0.51988175688E+02  0.00000000000E+00 0.  1.
</event>
<event>
 5   0  0.2413800E+01  0.8024323E+02  0.7957747E-01  0.1326912E+00
        3   -1    0    0  501    0  0.00000000000E+00  0.00000000000E+00  0.37700144715E+02  0.37700144715E+02  0.00000000000E+00 0. -1.
       -4   -1    0    0    0  501  0.00000000000E+00  0.00000000000E+00 -0.42698620785E+02  0.42698620785E+02  0.00000000000E+00 0.  1.
      -24    2    1    2    0    0  0.00000000000E+00  0.00000000000E+00 -0.49984760697E+01  0.80398765500E+02  0.80243234798E+02 0.  0.
       11    1    3    3    0    0  0.72767472862E+01 -0.25006463536E+02  0.28079909078E+02  0.38298244914E+02  0.00000000000E+00 0. -1.
      -12    1    3    3    0    0 -0.72767472862E+01  0.25006463536E+02 -0.33078385148E+02  0.42100520586E+02  0.00000000000E+00 0.  1.
</event>
<event>
 5   0  0.2413800E+01  0.8075513E+02  0.7957747E-01  0.1325548E+00
       -4   -1    0    0    0  501  0.00000000000E+00  0.00000000000E+00  0.14035464464E+02  0.14035464464E+02  0.00000000000E+00 0.  1.
        3   -1    0    0  501    0  0.00000000000E+00  0.00000000000E+00 -0.11615915549E+03  0.11615915549E+03  0.00000000000E+00 0. -1.
      -24    2    1    2    0    0  0.00000000000E+00  0.00000000000E+00 -0.10212369103E+03  0.13019461996E+03  0.80755128608E+02 0.  0.
       11    1    3    3    0    0 -0.36869889225E+02  0.80024539494E+01 -0.74253078743E+02  0.83288340741E+02  0.00000000000E+00 0. -1.
      -12    1    3    3    0    0  0.36869889225E+02 -0.80024539494E+01 -0.27870612285E+02  0.46906279215E+02  0.00000000000E+00 0.  1.
</event>
<event>
 5   0  0.2413800E+01  0.9674494E+02  0.7957747E-01  0.1287915E+00
        3   -1    0    0  501    0  0.00000000000E+00  0.00000000000E+00  0.19936049313E+03  0.19936049313E+03  0.00000000000E+00 0. -1.
       -4   -1    0    0    0  501  0.00000000000E+00  0.00000000000E+00 -0.11737008014E+02  0.11737008014E+02  0.00000000000E+00 0.  1.
      -24    2    1    2    0    0  0.00000000000E+00  0.00000000000E+00  0.18762348511E+03  0.21109750114E+03  0.96744936932E+02 0.  0.
       11    1    3    3    0    0  0.71101417302E+01 -0.47754279152E+02  0.10031044663E+03  0.11132479956E+03  0.00000000000E+00 0. -1.
      -12    1    3    3    0    0 -0.71101417302E+01  0.47754279152E+02  0.87313038484E+02  0.99772701587E+02  0.00000000000E+00 0.  1.
</event>
<event>
 5   0  0.2413800E+01  0.8332611E+02  0.7957747E-01  0.1318862E+00
       -2   -1    0    0    0  501  0.00000000000E+00  0.00000000000E+00  0.10531588042E+03  0.10531588042E+03  0.00000000000E+00 0.  1.
        1   -1    0    0  501    0  0.00000000000E+00  0.00000000000E+00 -0.16481939659E+02  0.16481939659E+02  0.00000000000E+00 0. -1.
      -24    2    1    2    0    0  0.00000000000E+00  0.00000000000E+00  0.88833940763E+02  0.12179782008E+03  0.83326106023E+02 0.  0.
       11    1    3    3    0    0  0.16297225386E+02 -0.59585390934E+01 -0.10948618369E+02  0.20517699374E+02  0.00000000000E+00 0. -1.
      -12    1    3    3    0    0 -0.16297225386E+02  0.59585390934E+01  0.99782559132E+02  0.10128012071E+03  0.00000000000E+00 0.  1.
</event>
<event>
 5   0  0.2413800E+01  0.8005749E+02  0.7957747E-01  0.1327410E+00
       -2   -1    0    0    0  501  0.00000000000E+00  0.00000000000E+00  0.80855302569E+02  0.80855302569E+02  0.00000000000E+00 0.  1.
        1   -1    0    0  501    0  0.00000000000E+00  0.00000000000E+00 -0.19816886999E+02  0.19816886999E+02  0.00000000000E+00 0. -1.
      -24    2    1    2    0    0  0.00000000000E+00  0.00000000000E+00  0.61038415569E+02  0.10067218957E+03  0.80057489201E+02 0.  0.
       11    1    3    3    0    0  0.22517523887E+01  0.36307684235E+02  0.95155131356E+01  0.37601373825E+02  0.00000000000E+00 0. -1.
      -12    1    3    3    0    0 -0.22517523887E+01 -0.36307684235E+02  0.51522902434E+02  0.63070815743E+02  0.00000000000E+00 0.  1.
</event>
<event>
 5   0  0.2413800E+01  0.8838959E+02  0.7957747E-01  0.1306459E+00
       -2   -1    0    0    0  501  0.00000000000E+00  0.00000000000E+00  0.10363015167E+03  0.10363015167E+03  0.00000000000E+00 0.  1.
        1   -1    0    0  501    0  0.00000000000E+00  0.00000000000E+00 -0.18847603602E+02  0.18847603602E+02  0.00000000000E+00 0. -1.
      -24    2    1    2    0    0  0.00000000000E+00  0.00000000000E+00  0.84782548066E+02  0.12247775527E+03  0.88389592598E+02 0.  0.
       11    1    3    3    0    0  0.76983629081E+01 -0.26253092059E+02 -0.57030481286E+01  0.27946634719E+02  0.00000000000E+00 0. -1.
      -12    1    3    3    0    0 -0.76983629081E+01  0.26253092059E+02  0.90485596195E+02  0.94531120552E+02  0.00000000000E+00 0.  1.
</event>
<event>
 5   0  0.2413800E+01  0.7971468E+02  0.7957747E-01  0.1328334E+00
        1   -1    0    0  501    0  0.00000000000E+00  0.00000000000E+00  0.28806399079E+02  0.28806399079E+02  0.00000000000E+00 0. -1.
       -2   -1    0    0    0  501  0.00000000000E+00  0.00000000000E+00 -0.55147734673E+02  0.55147734673E+02  0.00000000000E+00 0.  1.
      -24    2    1    2    0    0  0.00000000000E+00  0.00000000000E+00 -0.26341335595E+02  0.83954133752E+02  0.79714682544E+02 0.  0.
       11    1    3    3    0    0 -0.12053239964E+02  0.35850679548E+02 -0.26411309438E+02  0.46131432711E+02  0.00000000000E+00 0. -1.
      -12    1    3    3    0    0  0.12053239964E+02 -0.35850679548E+02  0.69973843347E-01  0.37822701041E+02  0.00000000000E+00 0.  1.
</event>
<event>
 5   0  0.2413800E+01  0.8013322E+02  0.7957747E-01  0.1327207E+00
        1   -1    0    0  501    0  0.00000000000E+00  0.00000000000E+00  0.50352534510E+02  0.50352534510E+02  0.00000000000E+00 0. -1.
       -2   -1    0    0    0  501  0.00000000000E+00  0.00000000000E+00 -0.31881878582E+02  0.31881878582E+02  0.00000000000E+00 0.  1.
      -24    2    1    2    0    0  0.00000000000E+00  0.00000000000E+00  0.18470655928E+02  0.82234413092E+02  0.80133223860E+02 0.  0.
       11    1    3    3    0    0 -0.16347238302E+02  0.31721381018E+02  0.27929889384E+02  0.45316188441E+02  0.00000000000E+00 0. -1.
      -12    1    3    3    0    0  0.16347238302E+02 -0.31721381018E+02 -0.94592334564E+01  0.36918224651E+02  0.00000000000E+00 0.  1.
</event>
<event>
 5   0  0.2413800E+01  0.7993518E+02  0.7957747E-01  0.1327739E+00
       -2   -1    0    0    0  501  0.00000000000E+00  0.00000000000E+00  0.31557887903E+01  0.31557887903E+01  0.00000000000E+00 0.  1.
        1   -1    0    0  501    0  0.00000000000E+00  0.00000000000E+00 -0.50618344986E+03  0.50618344986E+03  0.00000000000E+00 0. -1.
      -24    2    1    2    0    0  0.00000000000E+00  0.00000000000E+00 -0.50302766107E+03  0.50933923865E+03  0.79935175158E+02 0.  0.
       11    1    3    3    0    0 -0.31471251860E+02 -0.18523379065E+02 -0.14801151872E+03  0.15244987681E+03  0.00000000000E+00 0. -1.
      -12    1    3    3    0    0  0.31471251860E+02  0.18523379065E+02 -0.35501614236E+03  0.35688936185E+03  0.00000000000E+00 0.  1.
</event>
<event>
 4   0  0.2413800E+01  0.2659568E+02  0.7957747E-01  0.1615816E+00
       -2   -1    0    0    0  501  0.00000000000E+00  0.00000000000E+00  0.43473563483E+02  0.43473563483E+02  0.00000000000E+00 0.  1.
        1   -1    0    0  501    0  0.00000000000E+00  0.00000000000E+00 -0.40675878423E+01  0.40675878423E+01  0.00000000000E+00 0. -1.
       11    1    1    2    0    0  0.74107706554E+01 -0.99331026815E+01  0.11084376781E+02  0.16626769356E+02  0.00000000000E+00 0. -1.
      -12    1    1    2    0    0 -0.74107706554E+01  0.99331026815E+01  0.28321598859E+02  0.30914381969E+02  0.00000000000E+00 0.  1.
</event>
<event>
 5   0  0.2413800E+01  0.6787634E+02  0.7957747E-01  0.1363872E+00
        3   -1    0    0  501    0  0.00000000000E+00  0.00000000000E+00  0.94616856124E+01  0.94616856124E+01  0.00000000000E+00 0. -1.
       -4   -1    0    0    0  501  0.00000000000E+00  0.00000000000E+00 -0.12173299116E+03  0.12173299116E+03  0.00000000000E+00 0.  1.
      -24    2    1    2    0    0  0.00000000000E+00  0.00000000000E+00 -0.11227130555E+03  0.13119467677E+03  0.67876337290E+02 0.  0.
       11    1    3    3    0    0 -0.26924848210E+01 -0.27353197181E+02 -0.17655341882E+02  0.32667383848E+02  0.00000000000E+00 0. -1.
      -12    1    3    3    0    0  0.26924848210E+01  0.27353197181E+02 -0.94615963664E+02  0.98527292922E+02  0.00000000000E+00 0.  1.
</event>
<event>
 5   0  0.2413800E+01  0.7927948E+02  0.7957747E-01  0.1329513E+00
       -4   -1    0    0    0  501  0.00000000000E+00  0.00000000000E+00  0.24073090032E+02  0.24073090032E+02  0.00000000000E+00 0.  1.
        3   -1    0    0  501    0  0.00000000000E+00  0.00000000000E+00 -0.65272422953E+02  0.65272422953E+02  0.00000000000E+00 0. -1.
      -24    2    1    2    0    0  0.00000000000E+00  0.00000000000E+00 -0.41199332921E+02  0.89345512985E+02  0.79279478160E+02 0.  0.
       11    1    3    3    0    0  0.93800969816E+01 -0.37415454780E+02 -0.30891950253E+02  0.49418772406E+02  0.00000000000E+00 0. -1.
      -12    1    3    3    0    0 -0.93800969816E+01  0.37415454780E+02 -0.10307382669E+02  0.39926740579E+02  0.00000000000E+00 0.  1.
</event>
<event>
 5   0  0.2413800E+01  0.8189557E+02  0.7957747E-01  0.1322548E+00
       -2   -1    0    0    0  501  0.00000000000E+00  0.00000000000E+00  0.12085411982E+03  0.12085411982E+03  0.00000000000E+00 0.  1.
        1   -1    0    0  501    0  0.00000000000E+00  0.00000000000E+00 -0.13873925965E+02  0.13873925965E+02  0.00000000000E+00 0. -1.
      -24    2    1    2    0    0  0.00000000000E+00  0.00000000000E+00  0.10698019385E+03  0.13472804578E+03  0.81895570355E+02 0.  0.
       11    1    3    3    0    0  0.28121731158E+02  0.26826110513E+02  0.74701886268E+02  0.84207148037E+02  0.00000000000E+00 0. -1.
      -12    1    3    3    0    0 -0.28121731158E+02 -0.26826110513E+02  0.32278307583E+02  0.50520897745E+02  0.00000000000E+00 0.  1.
</event>
<event>
 5   0  0.2413800E+01  0.8133026E+02  0.7957747E-01  0.1324028E+00
       -2   -1    0    0    0  501  0.00000000000E+00  0.00000000000E+00  0.15648538067E+02  0.15648538067E+02  0.00000000000E+00 0.  1.
        1   -1    0    0  501    0  0.00000000000E+00  0.00000000000E+00 -0.10567457481E+03  0.10567457481E+03  0.00000000000E+00 0. -1.
      -24    2    1    2    0    0  0.00000000000E+00  0.00000000000E+00 -0.90026036745E+02  0.12132311288E+03  0.81330255295E+02 0.  0.
       11    1    3    3    0    0  0.28478083686E+02 -0.20542222276E+01 -0.88207195962E+02  0.92713162490E+02  0.00000000000E+00 0. -1.
      -12    1    3    3    0    0 -0.28478083686E+02  0.20542222276E+01 -0.18188407827E+01  0.28609950388E+02  0.00000000000E+00 0.  1.
</event>
<event>
 5   0  0.2413800E+01  0.8191008E+02  0.7957747E-01  0.1322510E+00
       -2   -1    0    0    0  501  0.00000000000E+00  0.00000000000E+00  0.59937720771E+02  0.59937720771E+02  0.00000000000E+00 0.  1.
        1   -1    0    0  501    0  0.00000000000E+00  0.00000000000E+00 -0.27984300629E+02  0.27984300629E+02  0.00000000000E+00 0. -1.
      -24    2    1    2    0    0  0.00000000000E+00  0.00000000000E+00  0.31953420142E+02  0.87922021400E+02  0.81910077453E+02 0.  0.
       11    1    3    3    0    0  0.15634873214E+02  0.30463011493E+02 -0.81418004318E+01  0.35195642400E+02  0.00000000000E+00 0. -1.
      -12    1    3    3    0    0 -0.15634873214E+02 -0.30463011493E+02  0.40095220574E+02  0.52726379001E+02  0.00000000000E+00 0.  1.
</event>
<event>
 5   0  0.2413800E+01  0.8008745E+02  0.7957747E-01  0.1327330E+00
       -4   -1    0    0    0  501  0.00000000000E+00  0.00000000000E+00  0.47110018089E+02  0.47110018089E+02  0.00000000000E+00 0.  1.
        3   -1    0    0  501    0  0.00000000000E+00  0.00000000000E+00 -0.34037342085E+02  0.34037342085E+02  0.00000000000E+00 0. -1.
      -24    2    1    2    0    0  0.00000000000E+00  0.00000000000E+00  0.13072676004E+02  0.81147360174E+02  0.80087447239E+02 0.  0.
       11    1    3    3    0    0 -0.27281092812E+02  0.21204526569E+02 -0.13970331410E+02  0.37270097018E+02  0.00000000000E+00 0. -1.
      -12    1    3    3    0    0  0.27281092812E+02 -0.21204526569E+02  0.27043007414E+02  0.43877263156E+02  0.00000000000E+00 0.  1.
</event>
<event>
 5   0  0.2413800E+01  0.7994552E+02  0.7957747E-01  0.1327711E+00
        1   -1    0    0  501    0  0.00000000000E+00  0.00000000000E+00  0.54583440209E+01  0.54583440209E+01  0.00000000000E+00 0. -1.
       -2   -1    0    0    0  501  0.00000000000E+00  0.00000000000E+00 -0.29273010396E+03  0.29273010396E+03  0.00000000000E+00 0.  1.
      -24    2    1    2    0    0  0.00000000000E+00  0.00000000000E+00 -0.28727175994E+03  0.29818844798E+03  0.79945521768E+02 0.  0.
       11    1    3    3    0    0  0.24965510558E+02 -0.35394045928E+01 -0.27947920276E+02  0.37641603978E+02  0.00000000000E+00 0. -1.
      -12    1    3    3    0    0 -0.24965510558E+02  0.35394045928E+01 -0.25932383966E+03  0.26054684400E+03  0.00000000000E+00 0.  1.
</event>
<event>
 5   0  0.2413800E+01  0.7988218E+02  0.7957747E-01  0.1327882E+00
       -2   -1    0    0    0  501  0.00000000000E+00  0.00000000000E+00  0.14907642896E+03  0.14907642896E+03  0.00000000000E+00 0.  1.
        1   -1    0    0  501    0  0.00000000000E+00  0.00000000000E+00 -0.10701159016E+02  0.10701159016E+02  0.00000000000E+00 0. -1.
      -24    2    1    2    0    0  0.00000000000E+00  0.00000000000E+00  0.13837526994E+03  0.15977758797E+03  0.79882177532E+02 0.  0.
       11    1    3    3    0    0 -0.30932600940E+02  0.98920771727E+01  0.22681672383E+02  0.39612337141E+02  0.00000000000E+00 0. -1.
      -12    1    3    3    0    0  0.30932600940E+02 -0.98920771727E+01  0.11569359756E+03  0.12016525083E+03  0.00000000000E+00 0.  1.
</event>
<event>
 5   0  0.2413800E+01  0.7537762E+02  0.7957747E-01  0.1340488E+00
       -4   -1    0    0    0  501  0.00000000000E+00  0.00000000000E+00  0.68904940687E+02  0.68904940687E+02  0.00000000000E+00 0.  1.
        3   -1    0    0  501    0  0.00000000000E+00  0.00000000000E+00 -0.20614581297E+02  0.20614581297E+02  0.00000000000E+00 0. -1.
      -24    2    1    2    0    0  0.00000000000E+00  0.00000000000E+00  0.48290359391E+02  0.89519521984E+02  0.75377622715E+02 0.  0.
       11    1    3    3    0    0  0.81510267903E+01  0.21906523842E+02 -0.10967075907E+02  0.25818826049E+02  0.00000000000E+00 0. -1.
      -12    1    3    3    0    0 -0.81510267903E+01 -0.21906523842E+02  0.59257435298E+02  0.63700695935E+02  0.00000000000E+00 0.  1.
</event>
<event>
 5   0  0.2413800E+01  0.8034948E+02  0.7957747E-01  0.1326628E+00
       -4   -1    0    0    0  501  0.00000000000E+00  0.00000000000E+00  0.24775616774E+02  0.24775616774E+02  0.00000000000E+00 0.  1.
        3   -1    0    0  501    0  0.00000000000E+00  0.00000000000E+00 -0.65145083183E+02  0.65145083183E+02  0.00000000000E+00 0. -1.
      -24    2    1    2    0    0  0.00000000000E+00  0.00000000000E+00 -0.40369466409E+02  0.89920699957E+02  0.80349477052E+02 0.  0.
       11    1    3    3    0    0 -0.11824404208E+02 -0.35815231745E+02 -0.46994835995E+01  0.38008321535E+02  0.00000000000E+00 0. -1.
      -12    1    3    3    0    0  0.11824404208E+02  0.35815231745E+02 -0.35669982809E+02  0.51912378422E+02  0.00000000000E+00 0.  1.
</event>
<event>
 5   0  0.2413800E+01  0.8052958E+02  0.7957747E-01  0.1326147E+00
        1   -1    0    0  501    0  0.00000000000E+00  0.00000000000E+00  0.20272419472E+02  0.20272419472E+02  0.00000000000E+00 0. -1.
       -2   -1    0    0    0  501  0.00000000000E+00  0.00000000000E+00 -0.79973352775E+02  0.79973352775E+02  0.00000000000E+00 0.  1.
      -24    2    1    2    0    0  0.00000000000E+00  0.00000000000E+00 -0.59700933303E+02  0.10024577225E+03  0.80529581002E+02 0.  0.
       11    1    3    3    0    0 -0.32335052268E+02  0.14517442493E+02 -0.53631039911E+02  0.64285303014E+02  0.00000000000E+00 0. -1.
      -12    1    3    3    0    0  0.32335052268E+02 -0.14517442493E+02 -0.60698933915E+01  0.35960469233E+02  0.00000000000E+00 0.  1.
</event>
<event>
 5   0  0.2413800E+01  0.8135976E+02  0.7957747E-01  0.1323950E+00
       -2   -1    0    0    0  501  0.00000000000E+00  0.00000000000E+00  0.61767002412E+02  0.61767002412E+02  0.00000000000E+00 0.  1.
        1   -1    0    0  501    0  0.00000000000E+00  0.00000000000E+00 -0.26791855150E+02  0.26791855150E+02  0.00000000000E+00 0. -1.
      -24    2    1    2    0    0  0.00000000000E+00  0.00000000000E+00  0.34975147263E+02  0.88558857562E+02  0.81359758644E+02 0.  0.
       11    1    3    3    0    0  0.22240240688E+02 -0.18201597238E+02 -0.13851075336E+02  0.31902644653E+02  0.00000000000E+00 0. -1.
      -12    1    3    3    0    0 -0.22240240688E+02  0.18201597238E+02  0.48826222599E+02  0.56656212909E+02  0.00000000000E+00 0.  1.
</event>
<event>
 5   0  0.2413800E+01  0.7859663E+02  0.7957747E-01  0.1331382E+00
       -2   -1    0    0    0  501  0.00000000000E+00  0.00000000000E+00  0.19243399446E+03  0.19243399446E+03  0.00000000000E+00 0.  1.
        1   -1    0    0  501    0  0.00000000000E+00  0.00000000000E+00 -0.80253885755E+01  0.80253885755E+01  0.00000000000E+00 0. -1.
      -24    2    1    2    0    0  0.00000000000E+00  0.00000000000E+00  0.18440860588E+03  0.20045938304E+03  0.78596630479E+02 0.  0.
       11    1    3    3    0    0  0.57040932772E+01 -0.10684055775E+02 -0.31466573346E+01  0.12513479943E+02  0.00000000000E+00 0. -1.
      -12    1    3    3    0    0 -0.57040932772E+01  0.10684055775E+02  0.18755526322E+03  0.18794590309E+03  0.00000000000E+00 0.  1.
</event>
<event>
 5   0  0.2413800E+01  0.8125460E+02  0.7957747E-01  0.1324227E+00
       -2   -1    0    0    0  501  0.00000000000E+00  0.00000000000E+00  0.16212292081E+02  0.16212292081E+02  0.00000000000E+00 0.  1.
        1   -1    0    0  501    0  0.00000000000E+00  0.00000000000E+00 -0.10181023932E+03  0.10181023932E+03  0.00000000000E+00 0. -1.
      -24    2    1    2    0    0  0.00000000000E+00  0.00000000000E+00 -0.85597947241E+02  0.11802253140E+03  0.81254595852E+02 0.  0.
       11    1    3    3    0    0  0.20794896652E+02 -0.20989039258E+02 -0.83302969006E+02  0.88387511228E+02  0.00000000000E+00 0. -1.
      -12    1    3    3    0    0 -0.20794896652E+02  0.20989039258E+02 -0.22949782345E+01  0.29635020176E+02  0.00000000000E+00 0.  1.
</event>
<event>
 5   0  0.2413800E+01  0.8062089E+02  0.7957747E-01  0.1325904E+00
        1   -1    0    0  501    0  0.00000000000E+00  0.00000000000E+00  0.39303976976E+03  0.39303976976E+03  0.00000000000E+00 0. -1.
       -2   -1    0    0    0  501  0.00000000000E+00  0.00000000000E+00 -0.41342685075E+01  0.41342685075E+01  0.00000000000E+00 0.  1.
      -24    2    1    2    0    0  0.00000000000E+00  0.00000000000E+00  0.38890550125E+03  0.39717403826E+03  0.80620889161E+02 0.  0.
       11    1    3    3    0    0  0.27494651896E+02  0.29335545982E+02  0.18017303776E+03  0.18460458736E+03  0.00000000000E+00 0. -1.
      -12    1    3    3    0    0 -0.27494651896E+02 -0.29335545982E+02  0.20873246349E+03  0.21256945090E+03  0.00000000000E+00 0.  1.
</event>
<event>
 5   0  0.2413800E+01  0.8316770E+02  0.7957747E-01  0.1319266E+00
        1   -1    0    0  501    0  0.00000000000E+00  0.00000000000E+00  0.43536609365E+02  0.43536609365E+02  0.00000000000E+00 0. -1.
       -2   -1    0    0    0  501  0.00000000000E+00  0.00000000000E+00 -0.39718681720E+02  0.39718681720E+02  0.00000000000E+00 0.  1.
      -24    2    1    2    0    0  0.00000000000E+00  0.00000000000E+00  0.38179276448E+01  0.83255291085E+02  0.83167703601E+02 0.  0.
       11    1    3    3    0    0 -0.17365433368E+02 -0.36713043080E+02  0.10852068175E+02  0.42037759121E+02  0.00000000000E+00 0. -1.
      -12    1    3    3    0    0  0.17365433368E+02  0.36713043080E+02 -0.70341405298E+01  0.41217531964E+02  0.00000000000E+00 0.  1.
</event>
<event>
 5   0  0.2413800E+01  0.8323899E+02  0.7957747E-01  0.1319084E+00
       -4   -1    0    0    0  501  0.00000000000E+00  0.00000000000E+00  0.32287006447E+02  0.32287006447E+02  0.00000000000E+00 0.  1.
        3   -1    0    0  501    0  0.00000000000E+00  0.00000000000E+00 -0.53649519687E+02  0.53649519687E+02  0.00000000000E+00 0. -1.
      -24    2    1    2    0    0  0.00000000000E+00  0.00000000000E+00 -0.21362513241E+02  0.85936526134E+02  0.83238990576E+02 0.  0.
       11    1    3    3    0    0  0.18680789299E+02  0.35291139720E+02 -0.22798125782E+02  0.45980332434E+02  0.00000000000E+00 0. -1.
      -12    1    3    3    0    0 -0.18680789299E+02 -0.35291139720E+02  0.14356125413E+01  0.39956193700E+02  0.00000000000E+00 0.  1.
</event>
<event>
 5   0  0.2413800E+01  0.8399522E+02  0.7957747E-01  0.1317167E+00
       -2   -1    0    0    0  501  0.00000000000E+00  0.00000000000E+00  0.14832817142E+03  0.14832817142E+03  0.00000000000E+00 0.  1.
        1   -1    0    0  501    0  0.00000000000E+00  0.00000000000E+00 -0.11891193960E+02  0.11891193960E+02  0.00000000000E+00 0. -1.
      -24    2    1    2    0    0  0.00000000000E+00  0.00000000000E+00  0.13643697746E+03  0.16021936538E+03  0.83995215485E+02 0.  0.
       11    1    3    3    0    0  0.30009117917E+02 -0.28254896332E+02  0.52850203938E+02  0.67022610970E+02  0.00000000000E+00 0. -1.
      -12    1    3    3    0    0 -0.30009117917E+02  0.28254896332E+02  0.83586773525E+02  0.93196754413E+02  0.00000000000E+00 0.  1.
</event>
<event>
 5   0  0.2413800E+01  0.8085483E+02  0.7957747E-01  0.1325283E+00
        1   -1    0    0  501    0  0.00000000000E+00  0.00000000000E+00  0.39071531288E+03  0.39071531288E+03  0.00000000000E+00 0. -1.
       -2   -1    0    0    0  501  0.00000000000E+00  0.00000000000E+00 -0.41830353393E+01  0.41830353393E+01  0.00000000000E+00 0.  1.
      -24    2    1    2    0    0  0.00000000000E+00  0.00000000000E+00  0.38653227754E+03  0.39489834822E+03  0.80854831925E+02 0.  0.
       11    1    3    3    0    0 -0.16355419897E+02  0.29404816309E+02  0.83812059469E+02  0.90313920824E+02  0.00000000000E+00 0. -1.
      -12    1    3    3    0    0  0.16355419897E+02 -0.29404816309E+02  0.30272021808E+03  0.30458442740E+03  0.00000000000E+00 0.  1.
</event>
<event>
 5   0  0.2413800E+01  0.8178632E+02  0.7957747E-01  0.1322833E+00
        1   -1    0    0  501    0  0.00000000000E+00  0.00000000000E+00  0.67869813875E+02  0.67869813875E+02  0.00000000000E+00 0. -1.
       -2   -1    0    0    0  501  0.00000000000E+00  0.00000000000E+00 -0.24639090500E+02  0.24639090500E+02  0.00000000000E+00 0.  1.
      -24    2    1    2    0    0  0.00000000000E+00  0.00000000000E+00  0.43230723375E+02  0.92508904375E+02  0.81786318814E+02 0.  0.
       11    1    3    3    0    0 -0.17276547794E+02  0.29992898010E+02  0.46246386637E+02  0.57764879570E+02  0.00000000000E+00 0. -1.
      -12    1    3    3    0    0  0.17276547794E+02 -0.29992898010E+02 -0.30156632619E+01  0.34744024805E+02  0.00000000000E+00 0.  1.
</event>
<event>
 5   0  0.2413800E+01  0.7915892E+02  0.7957747E-01  0.1329842E+00
       -2   -1    0    0    0  501  0.00000000000E+00  0.00000000000E+00  0.16479394254E+02  0.16479394254E+02  0.00000000000E+00 0.  1.
        1   -1    0    0  501    0  0.00000000000E+00  0.00000000000E+00 -0.95060144060E+02  0.95060144060E+02  0.00000000000E+00 0. -1.
      -24    2    1    2    0    0  0.00000000000E+00  0.00000000000E+00 -0.78580749806E+02  0.11153953831E+03  0.79158918431E+02 0.  0.
       11    1    3    3    0    0  0.11420499311E+02 -0.33289933992E+02 -0.64805075826E+02  0.73745137891E+02  0.00000000000E+00 0. -1.
      -12    1    3    3    0    0 -0.11420499311E+02  0.33289933992E+02 -0.13775673979E+02  0.37794400423E+02  0.00000000000E+00 0.  1.
</event>
<event>
 5   0  0.2413800E+01  0.8073271E+02  0.7957747E-01  0.1325607E+00
       -4   -1    0    0    0  501  0.00000000000E+00  0.00000000000E+00  0.28175643451E+02  0.28175643451E+02  0.00000000000E+00 0.  1.
        3   -1    0    0  501    0  0.00000000000E+00  0.00000000000E+00 -0.57831599025E+02  0.57831599025E+02  0.00000000000E+00 0. -1.
      -24    2    1    2    0    0  0.00000000000E+00  0.00000000000E+00 -0.29655955574E+02  0.86007242476E+02  0.80732707481E+02 0.  0.
       11    1    3    3    0    0 -0.13455087879E+02  0.44333477860E+01 -0.55096288219E+02  0.56888442921E+02  0.00000000000E+00 0. -1.
      -12    1    3    3    0    0  0.13455087879E+02 -0.44333477860E+01  0.25440332645E+02  0.29118799555E+02  0.00000000000E+00 0.  1.
</event>
<event>
 5   0  0.2413800E+01  0.8179825E+02  0.7957747E-01  0.1322802E+00
        3   -1    0    0  501    0  0.00000000000E+00  0.00000000000E+00  0.28958563061E+02  0.28958563061E+02  0.00000000000E+00 0. -1.
       -4   -1    0    0    0  501  0.00000000000E+00  0.00000000000E+00 -0.57763175953E+02  0.57763175953E+02  0.00000000000E+00 0.  1.
      -24    2    1    2    0    0  0.00000000000E+00  0.00000000000E+00 -0.28804612892E+02  0.86721739014E+02  0.81798253610E+02 0.  0.
       11    1    3    3    0    0 -0.37718394721E+02 -0.87879899120E+01 -0.46442838870E+00  0.38731405355E+02  0.00000000000E+00 0. -1.
      -12    1    3    3    0    0  0.37718394721E+02  0.87879899120E+01 -0.28340184503E+02  0.47990333659E+02  0.00000000000E+00 0.  1.
</event>
<event>
 5   0  0.2413800E+01  0.1012820E+03  0.7957747E-01  0.1278705E+00
        3   -1    0    0  501    0  0.00000000000E+00  0.00000000000E+00  0.44122681980E+02  0.44122681980E+02  0.00000000000E+00 0. -1.
       -4   -1    0    0    0  501  0.00000000000E+00  0.00000000000E+00 -0.58122322623E+02  0.58122322623E+02  0.00000000000E+00 0.  1.
      -24    2    1    2    0    0  0.00000000000E+00  0.00000000000E+00 -0.13999640643E+02  0.10224500460E+03  0.10128203705E+03 0.  0.
       11    1    3    3    0    0  0.47825500143E+02  0.12114915532E+02  0.45308231195E+01  0.49543697888E+02  0.00000000000E+00 0. -1.
      -12    1    3    3    0    0 -0.47825500143E+02 -0.12114915532E+02 -0.18530463762E+02  0.52701306715E+02  0.00000000000E+00 0.  1.
</event>
<event>
 5   0  0.2413800E+01  0.7846576E+02  0.7957747E-01  0.1331742E+00
       -2   -1    0    0    0  501  0.00000000000E+00  0.00000000000E+00  0.10218669173E+02  0.10218669173E+02  0.00000000000E+00 0.  1.
        1   -1    0    0  501    0  0.00000000000E+00  0.00000000000E+00 -0.15062813281E+03  0.15062813281E+03  0.00000000000E+00 0. -1.
      -24    2    1    2    0    0  0.00000000000E+00  0.00000000000E+00 -0.14040946364E+03  0.16084680198E+03  0.78465764696E+02 0.  0.
       11    1    3    3    0    0 -0.27201179167E+02 -0.25805711992E+02 -0.93879067428E+02  0.10108965437E+03  0.00000000000E+00 0. -1.
      -12    1    3    3    0    0  0.27201179167E+02  0.25805711992E+02 -0.46530396210E+02  0.59757147614E+02  0.00000000000E+00 0.  1.
</event>
<event>
 5   0  0.2413800E+01  0.8016583E+02  0.7957747E-01  0.1327120E+00
       -2   -1    0    0    0  501  0.00000000000E+00  0.00000000000E+00  0.18853179839E+03  0.18853179839E+03  0.00000000000E+00 0.  1.
        1   -1    0    0  501    0  0.00000000000E+00  0.00000000000E+00 -0.85218518280E+01  0.85218518280E+01  0.00000000000E+00 0. -1.
      -24    2    1    2    0    0  0.00000000000E+00  0.00000000000E+00  0.18000994656E+03  0.19705365022E+03  0.80165829398E+02 0.  0.
       11    1    3    3    0    0 -0.67751999890E+01 -0.95140975454E+01 -0.42460686142E+01  0.12427810977E+02  0.00000000000E+00 0. -1.
      -12    1    3    3    0    0  0.67751999890E+01  0.95140975454E+01  0.18425601518E+03  0.18462583924E+03  0.00000000000E+00 0.  1.
</event>
<event>
 5   0  0.2413800E+01  0.7922165E+02  0.7957747E-01  0.1329671E+00
        1   -1    0    0  501    0  0.00000000000E+00  0.00000000000E+00  0.12518141617E+02  0.12518141617E+02  0.00000000000E+00 0. -1.
       -2   -1    0    0    0  501  0.00000000000E+00  0.00000000000E+00 -0.12533949133E+03  0.12533949133E+03  0.00000000000E+00 0.  1.
      -24    2    1    2    0    0  0.00000000000E+00  0.00000000000E+00 -0.11282134971E+03  0.13785763294E+03  0.79221651147E+02 0.  0.
       11    1    3    3    0    0 -0.24916744180E+01 -0.26441251990E+02 -0.52706826812E+01  0.27076342887E+02  0.00000000000E+00 0. -1.
      -12    1    3    3    0    0  0.24916744180E+01  0.26441251990E+02 -0.10755066703E+03  0.11078129006E+03  0.00000000000E+00 0.  1.
</event>
<event>
 5   0  0.2413800E+01  0.1033567E+03  0.7957747E-01  0.1274673E+00
        3   -1    0    0  501    0  0.00000000000E+00  0.00000000000E+00  0.81080710752E+01  0.81080710752E+01  0.00000000000E+00 0. -1.
       -4   -1    0    0    0  501  0.00000000000E+00  0.00000000000E+00 -0.32938184298E+03  0.32938184298E+03  0.00000000000E+00 0.  1.
      -24    2    1    2    0    0  0.00000000000E+00  0.00000000000E+00 -0.32127377190E+03  0.33748991405E+03  0.10335669100E+03 0.  0.
       11    1    3    3    0    0 -0.10296214631E+02 -0.32753810979E+02 -0.34517610883E+02  0.48685620366E+02  0.00000000000E+00 0. -1.
      -12    1    3    3    0    0  0.10296214631E+02  0.32753810979E+02 -0.28675616102E+03  0.28880429369E+03  0.00000000000E+00 0.  1.
</event>
<event>
 5   0  0.2413800E+01  0.8067928E+02  0.7957747E-01  0.1325749E+00
        1   -1    0    0  501    0  0.00000000000E+00  0.00000000000E+00  0.55036423515E+02  0.55036423515E+02  0.00000000000E+00 0. -1.
       -2   -1    0    0    0  501  0.00000000000E+00  0.00000000000E+00 -0.29567447512E+02  0.29567447512E+02  0.00000000000E+00 0.  1.
      -24    2    1    2    0    0  0.00000000000E+00  0.00000000000E+00  0.25468976003E+02  0.84603871027E+02  0.80679280203E+02 0.  0.
       11    1    3    3    0    0 -0.59411939930E+01  0.16315763279E+02  0.50917018927E+02  0.53796326397E+02  0.00000000000E+00 0. -1.
      -12    1    3    3    0    0  0.59411939930E+01 -0.16315763279E+02 -0.25448042923E+02  0.30807544629E+02  0.00000000000E+00 0.  1.
</event>
<event>
 5   0  0.2413800E+01  0.8268440E+02  0.7957747E-01  0.1320505E+00
       -2   -1    0    0    0  501  0.00000000000E+00  0.00000000000E+00  0.54959079998E+03  0.54959079998E+03  0.00000000000E+00 0.  1.
        1   -1    0    0  501    0  0.00000000000E+00  0.00000000000E+00 -0.31099089014E+01  0.31099089014E+01  0.00000000000E+00 0. -1.
      -24    2    1    2    0    0  0.00000000000E+00  0.00000000000E+00  0.54648089108E+03  0.55270070888E+03  0.82684395649E+02 0.  0.
       11    1    3    3    0    0  0.34773325090E+02  0.38963200283E+01  0.12605899156E+03  0.13082520706E+03  0.00000000000E+00 0. -1.
      -12    1    3    3    0    0 -0.34773325090E+02 -0.38963200283E+01  0.42042189951E+03  0.42187550182E+03  0.00000000000E+00 0.  1.
</event>
<event>
 5   0  0.2413800E+01  0.8129419E+02  0.7957747E-01  0.1324123E+00
        1   -1    0    0  501    0  0.00000000000E+00  0.00000000000E+00  0.85738908754E+01  0.85738908754E+01  0.00000000000E+00 0. -1.
       -2   -1    0    0    0  501  0.00000000000E+00  0.00000000000E+00 -0.19269969904E+03  0.19269969904E+03  0.00000000000E+00 0.  1.
      -24    2    1    2    0    0  0.00000000000E+00  0.00000000000E+00 -0.18412580816E+03  0.20127358991E+03  0.81294186539E+02 0.  0.
       11    1    3    3    0    0 -0.67933266281E+01  0.28400643493E+02 -0.22059310246E+02  0.36597254078E+02  0.00000000000E+00 0. -1.
      -12    1    3    3    0    0  0.67933266281E+01 -0.28400643493E+02 -0.16206649792E+03  0.16467633584E+03  0.00000000000E+00 0.  1.
</event>
<event>
 5   0  0.2413800E+01  0.7937584E+02  0.7957747E-01  0.1329251E+00
        3   -1    0    0  501    0  0.00000000000E+00  0.00000000000E+00  0.12730068417E+03  0.12730068417E+03  0.00000000000E+00 0. -1.
       -4   -1    0    0    0  501  0.00000000000E+00  0.00000000000E+00 -0.12373310498E+02  0.12373310498E+02  0.00000000000E+00 0.  1.
      -24    2    1    2    0    0  0.00000000000E+00  0.00000000000E+00  0.11492737367E+03  0.13967399467E+03  0.79375837428E+02 0.  0.
       11    1    3    3    0    0  0.21752704564E+02 -0.24372678128E+02  0.17806098486E+02  0.37205708410E+02  0.00000000000E+00 0. -1.
      -12    1    3    3    0    0 -0.21752704564E+02  0.24372678128E+02  0.97121275184E+02  0.10246828626E+03  0.00000000000E+00 0.  1.
</event>
<event>
 5   0  0.2413800E+01  0.8112503E+02  0.7957747E-01  0.1324568E+00
        1   -1    0    0  501    0  0.00000000000E+00  0.00000000000E+00  0.42705763640E+02  0.42705763640E+02  0.00000000000E+00 0. -1.
       -2   -1    0    0    0  501  0.00000000000E+00  0.00000000000E+00 -0.38526828909E+02  0.38526828909E+02  0.00000000000E+00 0.  1.
      -24    2    1    2    0    0  0.00000000000E+00  0.00000000000E+00  0.41789347316E+01  0.81232592549E+02  0.81125030642E+02 0.  0.
       11    1    3    3    0    0 -0.29716333084E+02 -0.21054673351E+02  0.19972539997E+02  0.41536274217E+02  0.00000000000E+00 0. -1.
      -12    1    3    3    0    0  0.29716333084E+02  0.21054673351E+02 -0.15793605266E+02  0.39696318332E+02  0.00000000000E+00 0.  1.
</event>
<event>
 5   0  0.2413800E+01  0.8030035E+02  0.7957747E-01  0.1326759E+00
       -2   -1    0    0    0  501  0.00000000000E+00  0.00000000000E+00  0.53496938318E+02  0.53496938318E+02  0.00000000000E+00 0.  1.
        1   -1    0    0  501    0  0.00000000000E+00  0.00000000000E+00 -0.30133245476E+02  0.30133245476E+02  0.00000000000E+00 0. -1.
      -24    2    1    2    0    0  0.00000000000E+00  0.00000000000E+00  0.23363692842E+02  0.83630183794E+02  0.80300345568E+02 0.  0.
       11    1    3    3    0    0  0.26014399022E+02 -0.43458246800E+01  0.43209268991E+02  0.50622880947E+02  0.00000000000E+00 0. -1.
      -12    1    3    3    0    0 -0.26014399022E+02  0.43458246800E+01 -0.19845576148E+02  0.33007302848E+02  0.00000000000E+00 0.  1.
</event>
<event>
 5   0  0.2413800E+01  0.8244087E+02  0.7957747E-01  0.1321133E+00
       -4   -1    0    0    0  501  0.00000000000E+00  0.00000000000E+00  0.44364687268E+02  0.44364687268E+02  0.00000000000E+00 0.  1.
        3   -1    0    0  501    0  0.00000000000E+00  0.00000000000E+00 -0.38299024339E+02  0.38299024339E+02  0.00000000000E+00 0. -1.
      -24    2    1    2    0    0  0.00000000000E+00  0.00000000000E+00  0.60656629295E+01  0.82663711607E+02  0.82440869415E+02 0.  0.
       11    1    3    3    0    0 -0.14164017058E+02  0.46154879806E+01 -0.35505446116E+02  0.38504010342E+02  0.00000000000E+00 0. -1.
      -12    1    3    3    0    0  0.14164017058E+02 -0.46154879806E+01  0.41571109046E+02  0.44159701265E+02  0.00000000000E+00 0.  1.
</event>
<event>
 5   0  0.2413800E+01  0.8175736E+02  0.7957747E-01  0.1322908E+00
        1   -1    0    0  501    0  0.00000000000E+00  0.00000000000E+00  0.27810756976E+02  0.27810756976E+02  0.00000000000E+00 0. -1.
       -2   -1    0    0    0  501  0.00000000000E+00  0.00000000000E+00 -0.60087055699E+02  0.60087055699E+02  0.00000000000E+00 0.  1.
      -24    2    1    2    0    0  0.00000000000E+00  0.00000000000E+00 -0.32276298723E+02  0.87897812675E+02  0.81757360609E+02 0.  0.
       11    1    3    3    0    0 -0.36542291080E+02 -0.18313248997E+02 -0.16776346910E+02  0.44183254089E+02  0.00000000000E+00 0. -1.
      -12    1    3    3    0    0  0.36542291080E+02  0.18313248997E+02 -0.15499951813E+02  0.43714558586E+02  0.00000000000E+00 0.  1.
</event>
<event>
 5   0  0.2413800E+01  0.8071669E+02  0.7957747E-01  0.1325650E+00
       -4   -1    0    0    0  501  0.00000000000E+00  0.00000000000E+00  0.35233166978E+03  0.35233166978E+03  0.00000000000E+00 0.  1.
        3   -1    0    0  501    0  0.00000000000E+00  0.00000000000E+00 -0.46229059696E+01  0.46229059696E+01  0.00000000000E+00 0. -1.
      -24    2    1    2    0    0  0.00000000000E+00  0.00000000000E+00  0.34770876381E+03  0.35695457575E+03  0.80716694172E+02 0.  0.
       11    1    3    3    0    0 -0.18005097272E+02 -0.18003210457E+02  0.35378947629E+02  0.43588634412E+02  0.00000000000E+00 0. -1.
      -12    1    3    3    0    0  0.18005097272E+02  0.18003210457E+02  0.31232981618E+03  0.31336594134E+03  0.00000000000E+00 0.  1.
</event>
<event>
 5   0  0.2413800E+01  0.7854139E+02  0.7957747E-01  0.1331534E+00
       -4   -1    0    0    0  501  0.00000000000E+00  0.00000000000E+00  0.50816278010E+02  0.50816278010E+02  0.00000000000E+00 0.  1.
        3   -1    0    0  501    0  0.00000000000E+00  0.00000000000E+00 -0.30348295496E+02  0.30348295496E+02  0.00000000000E+00 0. -1.
      -24    2    1    2    0    0  0.00000000000E+00  0.00000000000E+00  0.20467982514E+02  0.81164573506E+02  0.78541388352E+02 0.  0.
       11    1    3    3    0    0 -0.12151558442E+02 -0.36139024361E+01 -0.28175464767E+02  0.30896237282E+02  0.00000000000E+00 0. -1.
      -12    1    3    3    0    0  0.12151558442E+02  0.36139024361E+01  0.48643447280E+02  0.50268336224E+02  0.00000000000E+00 0.  1.
</event>
<event>
 5   0  0.2413800E+01  0.7972885E+02  0.7957747E-01  0.1328295E+00
        3   -1    0    0  501    0  0.00000000000E+00  0.00000000000E+00  0.27757486298E+03  0.27757486298E+03  0.00000000000E+00 0. -1.
       -4   -1    0    0    0  501  0.00000000000E+00  0.00000000000E+00 -0.57252033858E+01  0.57252033858E+01  0.00000000000E+00 0.  1.
      -24    2    1    2    0    0  0.00000000000E+00  0.00000000000E+00  0.27184965960E+03  0.28330006637E+03  0.79728854134E+02 0.  0.
       11    1    3    3    0    0 -0.39584846560E+02  0.46718066127E+00  0.11926059634E+03  0.12565933381E+03  0.00000000000E+00 0. -1.
      -12    1    3    3    0    0  0.39584846560E+02 -0.46718066127E+00  0.15258906326E+03  0.15764073256E+03  0.00000000000E+00 0.  1.
</event>
<event>
 5   0  0.2413800E+01  0.8185307E+02  0.7957747E-01  0.1322659E+00
       -4   -1    0    0    0  501  0.00000000000E+00  0.00000000000E+00  0.40517052464E+03  0.40517052464E+03  0.00000000000E+00 0.  1.
        3   -1    0    0  501    0  0.00000000000E+00  0.00000000000E+00 -0.41340157486E+01  0.41340157486E+01  0.00000000000E+00 0. -1.
      -24    2    1    2    0    0  0.00000000000E+00  0.00000000000E+00  0.40103650889E+03  0.40930454039E+03  0.81853071530E+02 0.  0.
       11    1    3    3    0    0 -0.35609684256E+02  0.23086492320E+01  0.10030862948E+03  0.10646689919E+03  0.00000000000E+00 0. -1.
      -12    1    3    3    0    0  0.35609684256E+02 -0.23086492320E+01  0.30072787941E+03  0.30283764120E+03  0.00000000000E+00 0.  1.
</event>
<event>
 4   0  0.2413800E+01  0.3569732E+02  0.7957747E-01  0.1527194E+00
        1   -1    0    0  501    0  0.00000000000E+00  0.00000000000E+00  0.61583355755E+02  0.61583355755E+02  0.00000000000E+00 0. -1.
       -2   -1    0    0    0  501  0.00000000000E+00  0.00000000000E+00 -0.51730633502E+01  0.51730633502E+01  0.00000000000E+00 0.  1.
       11    1    1    2    0    0  0.11489007797E+02  0.84035388192E-01  0.53748542807E+02  0.54962807571E+02  0.00000000000E+00 0. -1.
      -12    1    1    2    0    0 -0.11489007797E+02 -0.84035388192E-01  0.26617495971E+01  0.11793611534E+02  0.00000000000E+00 0.  1.
</event>
<event>
 5   0  0.2413800E+01  0.7974718E+02  0.7957747E-01  0.1328246E+00
        3   -1    0    0  501    0  0.00000000000E+00  0.00000000000E+00  0.17636511479E+03  0.17636511479E+03  0.00000000000E+00 0. -1.
       -4   -1    0    0    0  501  0.00000000000E+00  0.00000000000E+00 -0.90148401408E+01  0.90148401408E+01  0.00000000000E+00 0.  1.
      -24    2    1    2    0    0  0.00000000000E+00  0.00000000000E+00  0.16735027465E+03  0.18537995493E+03  0.79747183430E+02 0.  0.
       11    1    3    3    0    0 -0.21457720520E+02 -0.29569641148E+02  0.12080365783E+03  0.12620745300E+03  0.00000000000E+00 0. -1.
      -12    1    3    3    0    0  0.21457720520E+02  0.29569641148E+02  0.46546616821E+02  0.59172501933E+02  0.00000000000E+00 0.  1.
</event>
<event>
 5   0  0.2413800E+01  0.7849221E+02  0.7957747E-01  0.1331669E+00
       -4   -1    0    0    0  501  0.00000000000E+00  0.00000000000E+00  0.85783754828E+02  0.85783754828E+02  0.00000000000E+00 0.  1.
        3   -1    0    0  501    0  0.00000000000E+00  0.00000000000E+00 -0.17955108603E+02  0.17955108603E+02  0.00000000000E+00 0. -1.
      -24    2    1    2    0    0  0.00000000000E+00  0.00000000000E+00  0.67828646225E+02  0.10373886343E+03  0.78492206857E+02 0.  0.
       11    1    3    3    0    0 -0.26860454179E+02 -0.20336154269E+02  0.73097141477E+01  0.34474267071E+02  0.00000000000E+00 0. -1.
      -12    1    3    3    0    0  0.26860454179E+02  0.20336154269E+02  0.60518932078E+02  0.69264596360E+02  0.00000000000E+00 0.  1.
</event>
<event>
 5   0  0.2413800E+01  0.7990124E+02  0.7957747E-01  0.1327830E+00
       -2   -1    0    0    0  501  0.00000000000E+00  0.00000000000E+00  0.29385805926E+03  0.29385805926E+03  0.00000000000E+00 0.  1.
        1   -1    0    0  501    0  0.00000000000E+00  0.00000000000E+00 -0.54313703268E+01  0.54313703268E+01  0.00000000000E+00 0. -1.
      -24    2    1    2    0    0  0.00000000000E+00  0.00000000000E+00  0.28842668893E+03  0.29928942959E+03  0.79901237622E+02 0.  0.
       11    1    3    3    0    0 -0.26104926685E+02 -0.71883399270E+01  0.34180774632E+02  0.43605788407E+02  0.00000000000E+00 0. -1.
      -12    1    3    3    0    0  0.26104926685E+02  0.71883399270E+01  0.25424591430E+03  0.25568364118E+03  0.00000000000E+00 0.  1.
</event>
<event>
 5   0  0.2413800E+01  0.8074232E+02  0.7957747E-01  0.1325582E+00
       -4   -1    0    0    0  501  0.00000000000E+00  0.00000000000E+00  0.10665401967E+03  0.10665401967E+03  0.00000000000E+00 0.  1.
        3   -1    0    0  501    0  0.00000000000E+00  0.00000000000E+00 -0.15281471594E+02  0.15281471594E+02  0.00000000000E+00 0. -1.
      -24    2    1    2    0    0  0.00000000000E+00  0.00000000000E+00  0.91372548079E+02  0.12193549127E+03  0.80742315351E+02 0.  0.
       11    1    3    3    0    0  0.96025650734E+01  0.16004914266E+02 -0.83744814408E+01  0.20457235298E+02  0.00000000000E+00 0. -1.
      -12    1    3    3    0    0 -0.96025650734E+01 -0.16004914266E+02  0.99747029520E+02  0.10147825597E+03  0.00000000000E+00 0.  1.
</event>
<event>
 5   0  0.2413800E+01  0.7896493E+02  0.7957747E-01  0.1330371E+00
       -2   -1    0    0    0  501  0.00000000000E+00  0.00000000000E+00  0.65517149818E+03  0.65517149818E+03  0.00000000000E+00 0.  1.
        1   -1    0    0  501    0  0.00000000000E+00  0.00000000000E+00 -0.23793239128E+01  0.23793239128E+01  0.00000000000E+00 0. -1.
      -24    2    1    2    0    0  0.00000000000E+00  0.00000000000E+00  0.65279217426E+03  0.65755082209E+03  0.78964934309E+02 0.  0.
       11    1    3    3    0    0  0.63248582664E+01  0.36332468391E+02  0.20898271310E+03  0.21221174912E+03  0.00000000000E+00 0. -1.
      -12    1    3    3    0    0 -0.63248582664E+01 -0.36332468391E+02  0.44380946117E+03  0.44533907297E+03  0.00000000000E+00 0.  1.
</event>
<event>
 5   0  0.2413800E+01  0.8081399E+02  0.7957747E-01  0.1325391E+00
       -2   -1    0    0    0  501  0.00000000000E+00  0.00000000000E+00  0.72799573086E+01  0.72799573086E+01  0.00000000000E+00 0.  1.
        1   -1    0    0  501    0  0.00000000000E+00  0.00000000000E+00 -0.22427675613E+03  0.22427675613E+03  0.00000000000E+00 0. -1.
      -24    2    1    2    0    0  0.00000000000E+00  0.00000000000E+00 -0.21699679883E+03  0.23155671344E+03  0.80813989135E+02 0.  0.
       11    1    3    3    0    0  0.34899640928E+02  0.11259892924E+02 -0.15712044292E+03  0.16134312414E+03  0.00000000000E+00 0. -1.
      -12    1    3    3    0    0 -0.34899640928E+02 -0.11259892924E+02 -0.59876355906E+02  0.70213589298E+02  0.00000000000E+00 0.  1.
</event>
<event>
 5   0  0.2413800E+01  0.8258633E+02  0.7957747E-01  0.1320758E+00
        1   -1    0    0  501    0  0.00000000000E+00  0.00000000000E+00  0.11476299590E+03  0.11476299590E+03  0.00000000000E+00 0. -1.
       -2   -1    0    0    0  501  0.00000000000E+00  0.00000000000E+00 -0.14857799649E+02  0.14857799649E+02  0.00000000000E+00 0.  1.
      -24    2    1    2    0    0  0.00000000000E+00  0.00000000000E+00  0.99905196251E+02  0.12962079555E+03  0.82586333015E+02 0.  0.
       11    1    3    3    0    0  0.62865300016E+01  0.32986564084E+02  0.87669792894E+02  0.93880916355E+02  0.00000000000E+00 0. -1.
      -12    1    3    3    0    0 -0.62865300016E+01 -0.32986564084E+02  0.12235403356E+02  0.35739879194E+02  0.00000000000E+00 0.  1.
</event>
<event>
 5   0  0.2413800E+01  0.8101055E+02  0.7957747E-01  0.1324871E+00
        1   -1    0    0  501    0  0.00000000000E+00  0.00000000000E+00  0.13008300292E+02  0.13008300292E+02  0.00000000000E+00 0. -1.
       -2   -1    0    0    0  501  0.00000000000E+00  0.00000000000E+00 -0.12612542500E+03  0.12612542500E+03  0.00000000000E+00 0.  1.
      -24    2    1    2    0    0  0.00000000000E+00  0.00000000000E+00 -0.11311712471E+03  0.13913372529E+03  0.81010552470E+02 0.  0.
       11    1    3    3    0    0 -0.45518534866E+01 -0.22885192416E+02  0.30589103711E+00  0.23335487383E+02  0.00000000000E+00 0. -1.
      -12    1    3    3    0    0  0.45518534866E+01  0.22885192416E+02 -0.11342301574E+03  0.11579823791E+03  0.00000000000E+00 0.  1.
</event>
<event>
 5   0  0.2413800E+01  0.8090320E+02  0.7957747E-01  0.1325155E+00
       -4   -1    0    0    0  501  0.00000000000E+00  0.00000000000E+00  0.13911641683E+02  0.13911641683E+02  0.00000000000E+00 0.  1.
        3   -1    0    0  501    0  0.00000000000E+00  0.00000000000E+00 -0.11762320948E+03  0.11762320948E+03  0.00000000000E+00 0. -1.
      -24    2    1    2    0    0  0.00000000000E+00  0.00000000000E+00 -0.10371156779E+03  0.13153485116E+03  0.80903200031E+02 0.  0.
       11    1    3    3    0    0  0.23060476387E+02  0.32693935309E+02 -0.61563632042E+02  0.73421793545E+02  0.00000000000E+00 0. -1.
      -12    1    3    3    0    0 -0.23060476387E+02 -0.32693935309E+02 -0.42147935752E+02  0.58113057615E+02  0.00000000000E+00 0.  1.
</event>
<event>
 5   0  0.2413800E+01  0.8035885E+02  0.7957747E-01  0.1326603E+00
       -2   -1    0    0    0  501  0.00000000000E+00  0.00000000000E+00  0.28995059322E+01  0.28995059322E+01  0.00000000000E+00 0.  1.
        1   -1    0    0  501    0  0.00000000000E+00  0.00000000000E+00 -0.55677974128E+03  0.55677974128E+03  0.00000000000E+00 0. -1.
      -24    2    1    2    0    0  0.00000000000E+00  0.00000000000E+00 -0.55388023535E+03  0.55967924722E+03  0.80358849240E+02 0.  0.
       11    1    3    3    0    0 -0.16152672140E+02  0.23089692696E+02 -0.77458285386E+02  0.82424685022E+02  0.00000000000E+00 0. -1.
      -12    1    3    3    0    0  0.16152672140E+02 -0.23089692696E+02 -0.47642194997E+03  0.47725456219E+03  0.00000000000E+00 0.  1.
</event>
<event>
 5   0  0.2413800E+01  0.8262113E+02  0.7957747E-01  0.1320668E+00
        1   -1    0    0  501    0  0.00000000000E+00  0.00000000000E+00  0.75240462351E+02  0.75240462351E+02  0.00000000000E+00 0. -1.
       -2   -1    0    0    0  501  0.00000000000E+00  0.00000000000E+00 -0.22681449222E+02  0.22681449222E+02  0.00000000000E+00 0.  1.
      -24    2    1    2    0    0  0.00000000000E+00  0.00000000000E+00  0.52559013129E+02  0.97921911573E+02  0.82621128683E+02 0.  0.
       11    1    3    3    0    0 -0.39326490998E+01 -0.38604712224E+02  0.43073022107E+02  0.57974777000E+02  0.00000000000E+00 0. -1.
      -12    1    3    3    0    0  0.39326490998E+01  0.38604712224E+02  0.94859910226E+01  0.39947134572E+02  0.00000000000E+00 0.  1.
</event>
<event>
 5   0  0.2413800E+01  0.7933924E+02  0.7957747E-01  0.1329351E+00
        3   -1    0    0  501    0  0.00000000000E+00  0.00000000000E+00  0.12640513077E+03  0.12640513077E+03  0.00000000000E+00 0. -1.
       -4   -1    0    0    0  501  0.00000000000E+00  0.00000000000E+00 -0.12449485925E+02  0.12449485925E+02  0.00000000000E+00 0.  1.
      -24    2    1    2    0    0  0.00000000000E+00  0.00000000000E+00  0.11395564484E+03  0.13885461669E+03  0.79339243665E+02 0.  0.
       11    1    3    3    0    0 -0.23820392348E+02 -0.31184085290E+02  0.67155837974E+02  0.77780234257E+02  0.00000000000E+00 0. -1.
      -12    1    3    3    0    0  0.23820392348E+02  0.31184085290E+02  0.46799806867E+02  0.61074382435E+02  0.00000000000E+00 0.  1.
</event>
<event>
 5   0  0.2413800E+01  0.8019927E+02  0.7957747E-01  0.1327030E+00
        1   -1    0    0  501    0  0.00000000000E+00  0.00000000000E+00  0.18833888278E+02  0.18833888278E+02  0.00000000000E+00 0. -1.
       -2   -1    0    0    0  501  0.00000000000E+00  0.00000000000E+00 -0.85377000341E+02  0.85377000341E+02  0.00000000000E+00 0.  1.
      -24    2    1    2    0    0  0.00000000000E+00  0.00000000000E+00 -0.66543112063E+02  0.10421088862E+03  0.80199273960E+02 0.  0.
       11    1    3    3    0    0  0.45041673053E+01 -0.24912546987E+02  0.71365974976E+01  0.26303109024E+02  0.00000000000E+00 0. -1.
      -12    1    3    3    0    0 -0.45041673053E+01  0.24912546987E+02 -0.73679709561E+02  0.77907779595E+02  0.00000000000E+00 0.  1.
</event>
<event>
 5   0  0.2413800E+01  0.8360447E+02  0.7957747E-01  0.1318155E+00
        1   -1    0    0  501    0  0.00000000000E+00  0.00000000000E+00  0.15170097942E+02  0.15170097942E+02  0.00000000000E+00 0. -1.
       -2   -1    0    0    0  501  0.00000000000E+00  0.00000000000E+00 -0.11518889718E+03  0.11518889718E+03  0.00000000000E+00 0.  1.
      -24    2    1    2    0    0  0.00000000000E+00  0.00000000000E+00 -0.10001879924E+03  0.13035899513E+03  0.83604470026E+02 0.  0.
       11    1    3    3    0    0  0.32121122194E+02 -0.20974921462E+02 -0.24118916655E+02  0.45314853657E+02  0.00000000000E+00 0. -1.
      -12    1    3    3    0    0 -0.32121122194E+02  0.20974921462E+02 -0.75899882588E+02  0.85044141469E+02  0.00000000000E+00 0.  1.
</event>
<event>
 5   0  0.2413800E+01  0.7968033E+02  0.7957747E-01  0.1328426E+00
       -2   -1    0    0    0  501  0.00000000000E+00  0.00000000000E+00  0.63941165233E+01  0.63941165233E+01  0.00000000000E+00 0.  1.
        1   -1    0    0  501    0  0.00000000000E+00  0.00000000000E+00 -0.24823423156E+03  0.24823423156E+03  0.00000000000E+00 0. -1.
      -24    2    1    2    0    0  0.00000000000E+00  0.00000000000E+00 -0.24184011504E+03  0.25462834809E+03  0.79680326347E+02 0.  0.
       11    1    3    3    0    0  0.39226336677E+02 -0.21482156013E+00 -0.98668103921E+02  0.10617978324E+03  0.00000000000E+00 0. -1.
      -12    1    3    3    0    0 -0.39226336677E+02  0.21482156013E+00 -0.14317201112E+03  0.14844856485E+03  0.00000000000E+00 0.  1.
</event>
<event>
 5   0  0.2413800E+01  0.8081617E+02  0.7957747E-01  0.1325386E+00
        3   -1    0    0  501    0  0.00000000000E+00  0.00000000000E+00  0.25074846679E+02  0.25074846679E+02  0.00000000000E+00 0. -1.
       -4   -1    0    0    0  501  0.00000000000E+00  0.00000000000E+00 -0.65117580412E+02  0.65117580412E+02  0.00000000000E+00 0.  1.
      -24    2    1    2    0    0  0.00000000000E+00  0.00000000000E+00 -0.40042733733E+02  0.90192427091E+02  0.80816170287E+02 0.  0.
       11    1    3    3    0    0  0.17967910386E+02 -0.34252169732E+02 -0.69703108570E+01  0.39301935937E+02  0.00000000000E+00 0. -1.
      -12    1    3    3    0    0 -0.17967910386E+02  0.34252169732E+02 -0.33072422876E+02  0.50890491154E+02  0.00000000000E+00 0.  1.
</event>
<event>
 5   0  0.2413800E+01  0.8043467E+02  0.7957747E-01  0.1326401E+00
       -2   -1    0    0    0  501  0.00000000000E+00  0.00000000000E+00  0.14993996361E+03  0.14993996361E+03  0.00000000000E+00 0.  1.
        1   -1    0    0  501    0  0.00000000000E+00  0.00000000000E+00 -0.10787210618E+02  0.10787210618E+02  0.00000000000E+00 0. -1.
      -24    2    1    2    0    0  0.00000000000E+00  0.00000000000E+00  0.13915275299E+03  0.16072717423E+03  0.80434668336E+02 0.  0.
       11    1    3    3    0    0 -0.34437661575E+02 -0.11154502510E+02  0.34561177353E+02  0.50048480906E+02  0.00000000000E+00 0. -1.
      -12    1    3    3    0    0  0.34437661575E+02  0.11154502510E+02  0.10459157564E+03  0.11067869332E+03  0.00000000000E+00 0.  1.
</event>
<event>
 5   0  0.2413800E+01  0.8133595E+02  0.7957747E-01  0.1324013E+00
        1   -1    0    0  501    0  0.00000000000E+00  0.00000000000E+00  0.33838928596E+01  0.33838928596E+01  0.00000000000E+00 0. -1.
       -2   -1    0    0    0  501  0.00000000000E+00  0.00000000000E+00 -0.48875194470E+03  0.48875194470E+03  0.00000000000E+00 0.  1.
      -24    2    1    2    0    0  0.00000000000E+00  0.00000000000E+00 -0.48536805184E+03  0.49213583755E+03  0.81335950619E+02 0.  0.
       11    1    3    3    0    0 -0.18260201388E+02  0.29103628650E+02 -0.11103142528E+03  0.11622578696E+03  0.00000000000E+00 0. -1.
      -12    1    3    3    0    0  0.18260201388E+02 -0.29103628650E+02 -0.37433662656E+03  0.37591005060E+03  0.00000000000E+00 0.  1.
</event>
<event>
 5   0  0.2413800E+01  0.7998233E+02  0.7957747E-01  0.1327612E+00
        1   -1    0    0  501    0  0.00000000000E+00  0.00000000000E+00  0.13713567935E+03  0.13713567935E+03  0.00000000000E+00 0. -1.
       -2   -1    0    0    0  501  0.00000000000E+00  0.00000000000E+00 -0.11662123703E+02  0.11662123703E+02  0.00000000000E+00 0.  1.
      -24    2    1    2    0    0  0.00000000000E+00  0.00000000000E+00  0.12547355565E+03  0.14879780306E+03  0.79982329465E+02 0.  0.
       11    1    3    3    0    0  0.23701502276E+02 -0.17125727424E+02  0.11984047130E+02  0.31601726782E+02  0.00000000000E+00 0. -1.
      -12    1    3    3    0    0 -0.23701502276E+02  0.17125727424E+02  0.11348950852E+03  0.11719607628E+03  0.00000000000E+00 0.  1.
</event>
<event>
 5   0  0.2413800E+01  0.8114210E+02  0.7957747E-01  0.1324523E+00
       -2   -1    0    0    0  501  0.00000000000E+00  0.00000000000E+00  0.42801884701E+02  0.42801884701E+02  0.00000000000E+00 0.  1.
        1   -1    0    0  501    0  0.00000000000E+00  0.00000000000E+00 -0.38456485131E+02  0.38456485131E+02  0.00000000000E+00 0. -1.
      -24    2    1    2    0    0  0.00000000000E+00  0.00000000000E+00  0.43453995697E+01  0.81258369831E+02  0.81142098631E+02 0.  0.
       11    1    3    3    0    0  0.60773179198E+01  0.39828945528E+02  0.69472719437E+01  0.40884511522E+02  0.00000000000E+00 0. -1.
      -12    1    3    3    0    0 -0.60773179198E+01 -0.39828945528E+02 -0.26018723740E+01  0.40373858309E+02  0.00000000000E+00 0.  1.
</event>
<event>
 5   0  0.2413800E+01  0.8027429E+02  0.7957747E-01  0.1326829E+00
       -4   -1    0    0    0  501  0.00000000000E+00  0.00000000000E+00  0.33138732754E+02  0.33138732754E+02  0.00000000000E+00 0.  1.
        3   -1    0    0  501    0  0.00000000000E+00  0.00000000000E+00 -0.48613519847E+02  0.48613519847E+02  0.00000000000E+00 0. -1.
      -24    2    1    2    0    0  0.00000000000E+00  0.00000000000E+00 -0.15474787093E+02  0.81752252601E+02  0.80274290840E+02 0.  0.
       11    1    3    3    0    0  0.34720868259E+02  0.18704398329E+02 -0.14375643110E+00  0.39438735723E+02  0.00000000000E+00 0. -1.
      -12    1    3    3    0    0 -0.34720868259E+02 -0.18704398329E+02 -0.15331030662E+02  0.42313516879E+02  0.00000000000E+00 0.  1.
</event>
<event>
 5   0  0.2413800E+01  0.8207264E+02  0.7957747E-01  0.1322087E+00
       -2   -1    0    0    0  501  0.00000000000E+00  0.00000000000E+00  0.57407006121E+02  0.57407006121E+02  0.00000000000E+00 0.  1.
        1   -1    0    0  501    0  0.00000000000E+00  0.00000000000E+00 -0.29334040517E+02  0.29334040517E+02  0.00000000000E+00 0. -1.
      -24    2    1    2    0    0  0.00000000000E+00  0.00000000000E+00  0.28072965604E+02  0.86741046638E+02  0.82072637182E+02 0.  0.
       11    1    3    3    0    0  0.26609310715E+02  0.15699017268E+02 -0.14508413164E+02  0.34132222495E+02  0.00000000000E+00 0. -1.
      -12    1    3    3    0    0 -0.26609310715E+02 -0.15699017268E+02  0.42581378768E+02  0.52608824143E+02  0.00000000000E+00 0.  1.
</event>
<event>
 5   0  0.2413800E+01  0.8446605E+02  0.7957747E-01  0.1315985E+00
       -4   -1    0    0    0  501  0.00000000000E+00  0.00000000000E+00  0.19202800660E+02  0.19202800660E+02  0.00000000000E+00 0.  1.
        3   -1    0    0  501    0  0.00000000000E+00  0.00000000000E+00 -0.92883760597E+02  0.92883760597E+02  0.00000000000E+00 0. -1.
      -24    2    1    2    0    0  0.00000000000E+00  0.00000000000E+00 -0.73680959937E+02  0.11208656126E+03  0.84466048547E+02 0.  0.
       11    1    3    3    0    0 -0.14770812458E+02  0.33316633180E+01 -0.89157859178E+02  0.90434510749E+02  0.00000000000E+00 0. -1.
      -12    1    3    3    0    0  0.14770812458E+02 -0.33316633180E+01  0.15476899241E+02  0.21652050509E+02  0.00000000000E+00 0.  1.
</event>
<event>
 5   0  0.2413800E+01  0.7855853E+02  0.7957747E-01  0.1331487E+00
        3   -1    0    0  501    0  0.00000000000E+00  0.00000000000E+00  0.29239985989E+02  0.29239985989E+02  0.00000000000E+00 0. -1.
       -4   -1    0    0    0  501  0.00000000000E+00  0.00000000000E+00 -0.52765440994E+02  0.52765440994E+02  0.00000000000E+00 0.  1.
      -24    2    1    2    0    0  0.00000000000E+00  0.00000000000E+00 -0.23525455005E+02  0.82005426983E+02  0.78558532455E+02 0.  0.
       11    1    3    3    0    0  0.19339456735E+00  0.34045975598E+02  0.86848680067E+01  0.35136772592E+02  0.00000000000E+00 0. -1.
      -12    1    3    3    0    0 -0.19339456735E+00 -0.34045975598E+02 -0.32210323012E+02  0.46868654391E+02  0.00000000000E+00 0.  1.
</event>
<event>
 5   0  0.2413800E+01  0.8044226E+02  0.7957747E-01  0.1326380E+00
       -4   -1    0    0    0  501  0.00000000000E+00  0.00000000000E+00  0.16638972231E+03  0.16638972231E+03  0.00000000000E+00 0.  1.
        3   -1    0    0  501    0  0.00000000000E+00  0.00000000000E+00 -0.97225924411E+01  0.97225924411E+01  0.00000000000E+00 0. -1.
      -24    2    1    2    0    0  0.00000000000E+00  0.00000000000E+00  0.15666712987E+03  0.17611231475E+03  0.80442263927E+02 0.  0.
       11    1    3    3    0    0  0.32389586999E+02 -0.20756463010E+02  0.52631569179E+02  0.65192010070E+02  0.00000000000E+00 0. -1.
      -12    1    3    3    0    0 -0.32389586999E+02  0.20756463010E+02  0.10403556069E+03  0.11092030468E+03  0.00000000000E+00 0.  1.
</event>
<event>
 5   0  0.2413800E+01  0.7988959E+02  0.7957747E-01  0.1327862E+00
        3   -1    0    0  501    0  0.00000000000E+00  0.00000000000E+00  0.77844984802E+02  0.77844984802E+02  0.00000000000E+00 0. -1.
       -4   -1    0    0    0  501  0.00000000000E+00  0.00000000000E+00 -0.20496971964E+02  0.20496971964E+02  0.00000000000E+00 0.  1.
      -24    2    1    2    0    0  0.00000000000E+00  0.00000000000E+00  0.57348012837E+02  0.98341956766E+02  0.79889585580E+02 0.  0.
       11    1    3    3    0    0  0.23608643376E+02  0.29335412687E+02  0.45081177903E+02  0.58738803875E+02  0.00000000000E+00 0. -1.
      -12    1    3    3    0    0 -0.23608643376E+02 -0.29335412687E+02  0.12266834934E+02  0.39603152891E+02  0.00000000000E+00 0.  1.
</event>
<event>
 5   0  0.2413800E+01  0.7830642E+02  0.7957747E-01  0.1332182E+00
        3   -1    0    0  501    0  0.00000000000E+00  0.00000000000E+00  0.32825864666E+02  0.32825864666E+02  0.00000000000E+00 0. -1.
       -4   -1    0    0    0  501  0.00000000000E+00  0.00000000000E+00 -0.46700186679E+02  0.46700186679E+02  0.00000000000E+00 0.  1.
      -24    2    1    2    0    0  0.00000000000E+00  0.00000000000E+00 -0.13874322013E+02  0.79526051345E+02  0.78306423946E+02 0.  0.
       11    1    3    3    0    0 -0.59814931708E+01  0.36319838635E+02  0.66147766109E+01  0.37398719345E+02  0.00000000000E+00 0. -1.
      -12    1    3    3    0    0  0.59814931708E+01 -0.36319838635E+02 -0.20489098624E+02  0.42127332000E+02  0.00000000000E+00 0.  1.
</event>
<event>
 5   0  0.2413800E+01  0.8008820E+02  0.7957747E-01  0.1327328E+00
       -2   -1    0    0    0  501  0.00000000000E+00  0.00000000000E+00  0.27077741414E+03  0.27077741414E+03  0.00000000000E+00 0.  1.
        1   -1    0    0  501    0  0.00000000000E+00  0.00000000000E+00 -0.59219482510E+01  0.59219482510E+01  0.00000000000E+00 0. -1.
      -24    2    1    2    0    0  0.00000000000E+00  0.00000000000E+00  0.26485546589E+03  0.27669936239E+03  0.80088197234E+02 0.  0.
       11    1    3    3    0    0 -0.32978375716E+02  0.20314466356E+02  0.97316530169E+02  0.10474138558E+03  0.00000000000E+00 0. -1.
      -12    1    3    3    0    0  0.32978375716E+02 -0.20314466356E+02  0.16753893572E+03  0.17195797681E+03  0.00000000000E+00 0.  1.
</event>
<event>
 5   0  0.2413800E+01  0.7935725E+02  0.7957747E-01  0.1329302E+00
       -2   -1    0    0    0  501  0.00000000000E+00  0.00000000000E+00  0.17793445599E+03  0.17793445599E+03  0.00000000000E+00 0.  1.
        1   -1    0    0  501    0  0.00000000000E+00  0.00000000000E+00 -0.88481635918E+01  0.88481635918E+01  0.00000000000E+00 0. -1.
      -24    2    1    2    0    0  0.00000000000E+00  0.00000000000E+00  0.16908629240E+03  0.18678261959E+03  0.79357247312E+02 0.  0.
       11    1    3    3    0    0  0.20775653626E+02 -0.76917529921E+01  0.70639990307E+01  0.23252761771E+02  0.00000000000E+00 0. -1.
      -12    1    3    3    0    0 -0.20775653626E+02  0.76917529921E+01  0.16202229337E+03  0.16352985781E+03  0.00000000000E+00 0.  1.
</event>
<event>
 5   0  0.2413800E+01  0.7836094E+02  0.7957747E-01  0.1332032E+00
        1   -1    0    0  501    0  0.00000000000E+00  0.00000000000E+00  0.74017918454E+02  0.74017918454E+02  0.00000000000E+00 0. -1.
       -2   -1    0    0    0  501  0.00000000000E+00  0.00000000000E+00 -0.20739696364E+02  0.20739696364E+02  0.00000000000E+00 0.  1.
      -24    2    1    2    0    0  0.00000000000E+00  0.00000000000E+00  0.53278222090E+02  0.94757614818E+02  0.78360938081E+02 0.  0.
       11    1    3    3    0    0  0.12516000134E+02  0.34033087799E+02  0.44583590822E+02  0.57468233791E+02  0.00000000000E+00 0. -1.
      -12    1    3    3    0    0 -0.12516000134E+02 -0.34033087799E+02  0.86946312673E+01  0.37289381027E+02  0.00000000000E+00 0.  1.
</event>
<event>
 5   0  0.2413800E+01  0.7982729E+02  0.7957747E-01  0.1328030E+00
       -2   -1    0    0    0  501  0.00000000000E+00  0.00000000000E+00  0.30598591602E+03  0.30598591602E+03  0.00000000000E+00 0.  1.
        1   -1    0    0  501    0  0.00000000000E+00  0.00000000000E+00 -0.52064456170E+01  0.52064456170E+01  0.00000000000E+00 0. -1.
      -24    2    1    2    0    0  0.00000000000E+00  0.00000000000E+00  0.30077947040E+03  0.31119236164E+03  0.79827289352E+02 0.  0.
       11    1    3    3    0    0  0.20242313419E+02 -0.24508927226E+02  0.56290683439E+02  0.64645802712E+02  0.00000000000E+00 0. -1.
      -12    1    3    3    0    0 -0.20242313419E+02  0.24508927226E+02  0.24448878696E+03  0.24654655892E+03  0.00000000000E+00 0.  1.
</event>
<event>
 5   0  0.2413800E+01  0.7869740E+02  0.7957747E-01  0.1331105E+00
       -2   -1    0    0    0  501  0.00000000000E+00  0.00000000000E+00  0.12128286953E+02  0.12128286953E+02  0.00000000000E+00 0.  1.
        1   -1    0    0  501    0  0.00000000000E+00  0.00000000000E+00 -0.12766190892E+03  0.12766190892E+03  0.00000000000E+00 0. -1.
      -24    2    1    2    0    0  0.00000000000E+00  0.00000000000E+00 -0.11553362196E+03  0.13979019587E+03  0.78697401846E+02 0.  0.
       11    1    3    3    0    0 -0.75807861943E+01  0.37138804688E+02 -0.76528536316E+02  0.85401264649E+02  0.00000000000E+00 0. -1.
      -12    1    3    3    0    0  0.75807861943E+01 -0.37138804688E+02 -0.39005085648E+02  0.54388931221E+02  0.00000000000E+00 0.  1.
</event>
<event>
 5   0  0.2413800E+01  0.7925407E+02  0.7957747E-01  0.1329582E+00
       -2   -1    0    0    0  501  0.00000000000E+00  0.00000000000E+00  0.58109958057E+01  0.58109958057E+01  0.00000000000E+00 0.  1.
        1   -1    0    0  501    0  0.00000000000E+00  0.00000000000E+00 -0.27022943162E+03  0.27022943162E+03  0.00000000000E+00 0. -1.
      -24    2    1    2    0    0  0.00000000000E+00  0.00000000000E+00 -0.26441843582E+03  0.27604042743E+03  0.79254074816E+02 0.  0.
       11    1    3    3    0    0 -0.38567073546E+02  0.48054194278E+01 -0.15914121437E+03  0.16381830584E+03  0.00000000000E+00 0. -1.
      -12    1    3    3    0    0  0.38567073546E+02 -0.48054194278E+01 -0.10527722144E+03  0.11222212158E+03  0.00000000000E+00 0.  1.
</event>
<event>
 5   0  0.2413800E+01  0.7457489E+02  0.7957747E-01  0.1342840E+00
        1   -1    0    0  501    0  0.00000000000E+00  0.00000000000E+00  0.25928346503E+01  0.25928346503E+01  0.00000000000E+00 0. -1.
       -2   -1    0    0    0  501  0.00000000000E+00  0.00000000000E+00 -0.53622918459E+03  0.53622918459E+03  0.00000000000E+00 0.  1.
      -24    2    1    2    0    0  0.00000000000E+00  0.00000000000E+00 -0.53363634994E+03  0.53882201924E+03  0.74574891493E+02 0.  0.
       11    1    3    3    0    0  0.31596442737E+02  0.52470348926E+01 -0.12887705390E+03  0.13279744572E+03  0.00000000000E+00 0. -1.
      -12    1    3    3    0    0 -0.31596442737E+02 -0.52470348926E+01 -0.40475929604E+03  0.40602457352E+03  0.00000000000E+00 0.  1.
</event>
<event>
 5   0  0.2413800E+01  0.8115193E+02  0.7957747E-01  0.1324497E+00
       -2   -1    0    0    0  501  0.00000000000E+00  0.00000000000E+00  0.46429553259E+01  0.46429553259E+01  0.00000000000E+00 0.  1.
        1   -1    0    0  501    0  0.00000000000E+00  0.00000000000E+00 -0.35460363967E+03  0.35460363967E+03  0.00000000000E+00 0. -1.
      -24    2    1    2    0    0  0.00000000000E+00  0.00000000000E+00 -0.34996068435E+03  0.35924659500E+03  0.81151928071E+02 0.  0.
       11    1    3    3    0    0 -0.18971608661E+02  0.32692522875E+02 -0.10966594269E+03  0.11599716365E+03  0.00000000000E+00 0. -1.
      -12    1    3    3    0    0  0.18971608661E+02 -0.32692522875E+02 -0.24029474165E+03  0.24324943135E+03  0.00000000000E+00 0.  1.
</event>
<event>
 5   0  0.2413800E+01  0.7963313E+02  0.7957747E-01  0.1328554E+00
        3   -1    0    0  501    0  0.00000000000E+00  0.00000000000E+00  0.15442982559E+02  0.15442982559E+02  0.00000000000E+00 0. -1.
       -4   -1    0    0    0  501  0.00000000000E+00  0.00000000000E+00 -0.10265885489E+03  0.10265885489E+03  0.00000000000E+00 0.  1.
      -24    2    1    2    0    0  0.00000000000E+00  0.00000000000E+00 -0.87215872329E+02  0.11810183745E+03  0.79633131434E+02 0.  0.
       11    1    3    3    0    0 -0.25938000561E+02 -0.15490154803E+02 -0.51441251043E+01  0.30646154604E+02  0.00000000000E+00 0. -1.
      -12    1    3    3    0    0  0.25938000561E+02  0.15490154803E+02 -0.82071747224E+02  0.87455682842E+02  0.00000000000E+00 0.  1.
</event>
<event>
 5   0  0.2413800E+01  0.8095425E+02  0.7957747E-01  0.1325020E+00
        3   -1    0    0  501    0  0.00000000000E+00  0.00000000000E+00  0.83476974068E+01  0.83476974068E+01  0.00000000000E+00 0. -1.
       -4   -1    0    0    0  501  0.00000000000E+00  0.00000000000E+00 -0.19626940460E+03  0.19626940460E+03  0.00000000000E+00 0.  1.
      -24    2    1    2    0    0  0.00000000000E+00  0.00000000000E+00 -0.18792170720E+03  0.20461710201E+03  0.80954248804E+02 0.  0.
       11    1    3    3    0    0 -0.78909573217E+01 -0.14472901889E+02 -0.52073125145E+00  0.16492521262E+02  0.00000000000E+00 0. -1.
      -12    1    3    3    0    0  0.78909573217E+01  0.14472901889E+02 -0.18740097595E+03  0.18812458075E+03  0.00000000000E+00 0.  1.
</event>
<event>
 5   0  0.2413800E+01  0.8032117E+02  0.7957747E-01  0.1326704E+00
       -2   -1    0    0    0  501  0.00000000000E+00  0.00000000000E+00  0.87010739661E+02  0.87010739661E+02  0.00000000000E+00 0.  1.
        1   -1    0    0  501    0  0.00000000000E+00  0.00000000000E+00 -0.18536477482E+02  0.18536477482E+02  0.00000000000E+00 0. -1.
      -24    2    1    2    0    0  0.00000000000E+00  0.00000000000E+00  0.68474262179E+02  0.10554721714E+03  0.80321170719E+02 0.  0.
       11    1    3    3    0    0  0.19187521406E+02 -0.16100556893E+01 -0.12075389950E+02  0.22728138936E+02  0.00000000000E+00 0. -1.
      -12    1    3    3    0    0 -0.19187521406E+02  0.16100556893E+01  0.80549652129E+02  0.82819078207E+02  0.00000000000E+00 0.  1.
</event>
<event>
 5   0  0.2413800E+01  0.8056807E+02  0.7957747E-01  0.1326045E+00
        3   -1    0    0  501    0  0.00000000000E+00  0.00000000000E+00  0.55643330606E+02  0.55643330606E+02  0.00000000000E+00 0. -1.
       -4   -1    0    0    0  501  0.00000000000E+00  0.00000000000E+00 -0.29164383300E+02  0.29164383300E+02  0.00000000000E+00 0.  1.
      -24    2    1    2    0    0  0.00000000000E+00  0.00000000000E+00  0.26478947306E+02  0.84807713906E+02  0.80568068660E+02 0.  0.
       11    1    3    3    0    0 -0.37163568510E+02 -0.11095985657E+02  0.24700573500E+02  0.45982279775E+02  0.00000000000E+00 0. -1.
      -12    1    3    3    0    0  0.37163568510E+02  0.11095985657E+02  0.17783738058E+01  0.38825434131E+02  0.00000000000E+00 0.  1.
</event>
<event>
 5   0  0.2413800E+01  0.8057391E+02  0.7957747E-01  0.1326029E+00
        3   -1    0    0  501    0  0.00000000000E+00  0.00000000000E+00  0.41063888320E+02  0.41063888320E+02  0.00000000000E+00 0. -1.
       -4   -1    0    0    0  501  0.00000000000E+00  0.00000000000E+00 -0.39524717858E+02  0.39524717858E+02  0.00000000000E+00 0.  1.
      -24    2    1    2    0    0  0.00000000000E+00  0.00000000000E+00  0.15391704614E+01  0.80588606178E+02  0.80573906446E+02 0.  0.
       11    1    3    3    0    0  0.16101872419E+02 -0.43051684477E+01  0.37453706008E+02  0.40994937059E+02  0.00000000000E+00 0. -1.
      -12    1    3    3    0    0 -0.16101872419E+02  0.43051684477E+01 -0.35914535547E+02  0.39593669119E+02  0.00000000000E+00 0.  1.
</event>
<event>
 5   0  0.2413800E+01  0.8095702E+02  0.7957747E-01  0.1325012E+00
        1   -1    0    0  501    0  0.00000000000E+00  0.00000000000E+00  0.13239728796E+02  0.13239728796E+02  0.00000000000E+00 0. -1.
       -2   -1    0    0    0  501  0.00000000000E+00  0.00000000000E+00 -0.12375706292E+03  0.12375706292E+03  0.00000000000E+00 0.  1.
      -24    2    1    2    0    0  0.00000000000E+00  0.00000000000E+00 -0.11051733412E+03  0.13699679172E+03  0.80957024393E+02 0.  0.
       11    1    3    3    0    0 -0.17285493677E+02 -0.18746994530E+02 -0.20608179907E+01  0.25582905745E+02  0.00000000000E+00 0. -1.
      -12    1    3    3    0    0  0.17285493677E+02  0.18746994530E+02 -0.10845651613E+03  0.11141388597E+03  0.00000000000E+00 0.  1.
</event>
<event>
 5   0  0.2413800E+01  0.8000973E+02  0.7957747E-01  0.1327539E+00
        1   -1    0    0  501    0  0.00000000000E+00  0.00000000000E+00  0.14077644683E+03  0.14077644683E+03  0.00000000000E+00 0. -1.
       -2   -1    0    0    0  501  0.00000000000E+00  0.00000000000E+00 -0.11368303557E+02  0.11368303557E+02  0.00000000000E+00 0.  1.
      -24    2    1    2    0    0  0.00000000000E+00  0.00000000000E+00  0.12940814327E+03  0.15214475038E+03  0.80009733939E+02 0.  0.
       11    1    3    3    0    0 -0.23934318712E+02  0.14143192707E+02  0.11940569462E+03  0.12259935326E+03  0.00000000000E+00 0. -1.
      -12    1    3    3    0    0  0.23934318712E+02 -0.14143192707E+02  0.10002448648E+02  0.29545397123E+02  0.00000000000E+00 0.  1.
</event>
<event>
 5   0  0.2413800E+01  0.8041275E+02  0.7957747E-01  0.1326459E+00
       -2   -1    0    0    0  501  0.00000000000E+00  0.00000000000E+00  0.23117553677E+03  0.23117553677E+03  0.00000000000E+00 0.  1.
        1   -1    0    0  501    0  0.00000000000E+00  0.00000000000E+00 -0.69927487773E+01  0.69927487773E+01  0.00000000000E+00 0. -1.
      -24    2    1    2    0    0  0.00000000000E+00  0.00000000000E+00  0.22418278799E+03  0.23816828555E+03  0.80412746554E+02 0.  0.
       11    1    3    3    0    0 -0.39734422335E+02  0.27384522716E+00  0.13026577587E+03  0.13619130542E+03  0.00000000000E+00 0. -1.
      -12    1    3    3    0    0  0.39734422335E+02 -0.27384522716E+00  0.93917012126E+02  0.10197698013E+03  0.00000000000E+00 0.  1.
</event>
<event>
 5   0  0.2413800E+01  0.8339584E+02  0.7957747E-01  0.1318685E+00
        1   -1    0    0  501    0  0.00000000000E+00  0.00000000000E+00  0.42661706221E+01  0.42661706221E+01  0.00000000000E+00 0. -1.
       -2   -1    0    0    0  501  0.00000000000E+00  0.00000000000E+00 -0.40755911139E+03  0.40755911139E+03  0.00000000000E+00 0.  1.
      -24    2    1    2    0    0  0.00000000000E+00  0.00000000000E+00 -0.40329294077E+03  0.41182528201E+03  0.83395844208E+02 0.  0.
       11    1    3    3    0    0 -0.14353822239E+02 -0.38371123950E+02 -0.16328669313E+03  0.16834761513E+03  0.00000000000E+00 0. -1.
      -12    1    3    3    0    0  0.14353822239E+02  0.38371123950E+02 -0.24000624764E+03  0.24347766688E+03  0.00000000000E+00 0.  1.
</event>
<event>
 5   0  0.2413800E+01  0.8171058E+02  0.7957747E-01  0.1323031E+00
        1   -1    0    0  501    0  0.00000000000E+00  0.00000000000E+00  0.39526477249E+02  0.39526477249E+02  0.00000000000E+00 0. -1.
       -2   -1    0    0    0  501  0.00000000000E+00  0.00000000000E+00 -0.42228776366E+02  0.42228776366E+02  0.00000000000E+00 0.  1.
      -24    2    1    2    0    0  0.00000000000E+00  0.00000000000E+00 -0.27022991177E+01  0.81755253615E+02  0.81710581158E+02 0.  0.
       11    1    3    3    0    0  0.25503725070E+02 -0.29485937022E+02  0.10874134955E+02  0.40473538090E+02  0.00000000000E+00 0. -1.
      -12    1    3    3    0    0 -0.25503725070E+02  0.29485937022E+02 -0.13576434072E+02  0.41281715525E+02  0.00000000000E+00 0.  1.
</event>
<event>
 5   0  0.2413800E+01  0.7914842E+02  0.7957747E-01  0.1329870E+00
        3   -1    0    0  501    0  0.00000000000E+00  0.00000000000E+00  0.71912326438E+02  0.71912326438E+02  0.00000000000E+00 0. -1.
       -4   -1    0    0    0  501  0.00000000000E+00  0.00000000000E+00 -0.21778158136E+02  0.21778158136E+02  0.00000000000E+00 0.  1.
      -24    2    1    2    0    0  0.00000000000E+00  0.00000000000E+00  0.50134168302E+02  0.93690484574E+02  0.79148417978E+02 0.  0.
       11    1    3    3    0    0 -0.94923719272E+01 -0.37031779315E+02  0.37177081663E+02  0.53325352366E+02  0.00000000000E+00 0. -1.
      -12    1    3    3    0    0  0.94923719272E+01  0.37031779315E+02  0.12957086638E+02  0.40365132208E+02  0.00000000000E+00 0.  1.
</event>
<event>
 5   0  0.2413800E+01  0.8109080E+02  0.7957747E-01  0.1324659E+00
       -2   -1    0    0    0  501  0.00000000000E+00  0.00000000000E+00  0.11898198119E+03  0.11898198119E+03  0.00000000000E+00 0.  1.
        1   -1    0    0  501    0  0.00000000000E+00  0.00000000000E+00 -0.13816623865E+02  0.13816623865E+02  0.00000000000E+00 0. -1.
      -24    2    1    2    0    0  0.00000000000E+00  0.00000000000E+00  0.10516535732E+03  0.13279860505E+03  0.81090795552E+02 0.  0.
       11    1    3    3    0    0 -0.11291306838E+02  0.24393594913E+02  0.28727345892E+01  0.27033196017E+02  0.00000000000E+00 0. -1.
      -12    1    3    3    0    0  0.11291306838E+02 -0.24393594913E+02  0.10229262273E+03  0.10576540904E+03  0.00000000000E+00 0.  1.
</event>
<event>
 5   0  0.2413800E+01  0.8094371E+02  0.7957747E-01  0.1325048E+00
        3   -1    0    0  501    0  0.00000000000E+00  0.00000000000E+00  0.11646489115E+02  0.11646489115E+02  0.00000000000E+00 0. -1.
       -4   -1    0    0    0  501  0.00000000000E+00  0.00000000000E+00 -0.14064077135E+03  0.14064077135E+03  0.00000000000E+00 0.  1.
      -24    2    1    2    0    0  0.00000000000E+00  0.00000000000E+00 -0.12899428223E+03  0.15228726046E+03  0.80943714087E+02 0.  0.
       11    1    3    3    0    0 -0.11286160464E+02  0.39738476553E+01  0.82426968068E+01  0.14529657045E+02  0.00000000000E+00 0. -1.
      -12    1    3    3    0    0  0.11286160464E+02 -0.39738476553E+01 -0.13723697904E+03  0.13775760341E+03  0.00000000000E+00 0.  1.
</event>
<event>
 5   0  0.2413800E+01  0.7939969E+02  0.7957747E-01  0.1329187E+00
       -4   -1    0    0    0  501  0.00000000000E+00  0.00000000000E+00  0.43819856760E+02  0.43819856760E+02  0.00000000000E+00 0.  1.
        3   -1    0    0  501    0  0.00000000000E+00  0.00000000000E+00 -0.35967200358E+02  0.35967200358E+02  0.00000000000E+00 0. -1.
      -24    2    1    2    0    0  0.00000000000E+00  0.00000000000E+00  0.78526564022E+01  0.79787057117E+02  0.79399686844E+02 0.  0.
       11    1    3    3    0    0 -0.16542146754E+02  0.17295151994E+01 -0.32297337354E+02  0.36328388929E+02  0.00000000000E+00 0. -1.
      -12    1    3    3    0    0  0.16542146754E+02 -0.17295151994E+01  0.40149993756E+02  0.43458668188E+02  0.00000000000E+00 0.  1.
</event>
<event>
 5   0  0.2413800E+01  0.8086858E+02  0.7957747E-01  0.1325247E+00
       -2   -1    0    0    0  501  0.00000000000E+00  0.00000000000E+00  0.15713191818E+02  0.15713191818E+02  0.00000000000E+00 0.  1.
        1   -1    0    0  501    0  0.00000000000E+00  0.00000000000E+00 -0.10404836369E+03  0.10404836369E+03  0.00000000000E+00 0. -1.
      -24    2    1    2    0    0  0.00000000000E+00  0.00000000000E+00 -0.88335171869E+02  0.11976155551E+03  0.80868582206E+02 0.  0.
       11    1    3    3    0    0  0.31549082221E+02 -0.37164562163E+00 -0.81616619890E+02  0.87502887676E+02  0.00000000000E+00 0. -1.
      -12    1    3    3    0    0 -0.31549082221E+02  0.37164562163E+00 -0.67185519799E+01  0.32258667830E+02  0.00000000000E+00 0.  1.
</event>
<event>
 5   0  0.2413800E+01  0.8546694E+02  0.7957747E-01  0.1313500E+00
       -2   -1    0    0    0  501  0.00000000000E+00  0.00000000000E+00  0.21408290171E+03  0.21408290171E+03  0.00000000000E+00 0.  1.
        1   -1    0    0  501    0  0.00000000000E+00  0.00000000000E+00 -0.85301044580E+01  0.85301044580E+01  0.00000000000E+00 0. -1.
      -24    2    1    2    0    0  0.00000000000E+00  0.00000000000E+00  0.20555279725E+03  0.22261300616E+03  0.85466941310E+02 0.  0.
       11    1    3    3    0    0  0.20645084666E+02 -0.60584575308E+01  0.66071645205E+01  0.22507311068E+02  0.00000000000E+00 0. -1.
      -12    1    3    3    0    0 -0.20645084666E+02  0.60584575308E+01  0.19894563273E+03  0.20010569510E+03  0.00000000000E+00 0.  1.
</event>
<event>
 5   0  0.2413800E+01  0.8345169E+02  0.7957747E-01  0.1318543E+00
       -2   -1    0    0    0  501  0.00000000000E+00  0.00000000000E+00  0.71103863865E+03  0.71103863865E+03  0.00000000000E+00 0.  1.
        1   -1    0    0  501    0  0.00000000000E+00  0.00000000000E+00 -0.24485957629E+01  0.24485957629E+01  0.00000000000E+00 0. -1.
      -24    2    1    2    0    0  0.00000000000E+00  0.00000000000E+00  0.70859004289E+03  0.71348723442E+03  0.83451691364E+02 0.  0.
       11    1    3    3    0    0 -0.83625187911E+01 -0.31028010060E+02  0.12674163079E+03  0.13075209407E+03  0.00000000000E+00 0. -1.
      -12    1    3    3    0    0  0.83625187911E+01  0.31028010060E+02  0.58184841210E+03  0.58273514034E+03  0.00000000000E+00 0.  1.
</event>
<event>
 5   0  0.2413800E+01  0.8065009E+02  0.7957747E-01  0.1325827E+00
        1   -1    0    0  501    0  0.00000000000E+00  0.00000000000E+00  0.71145019196E+02  0.71145019196E+02  0.00000000000E+00 0. -1.
       -2   -1    0    0    0  501  0.00000000000E+00  0.00000000000E+00 -0.22856264659E+02  0.22856264659E+02  0.00000000000E+00 0.  1.
      -24    2    1    2    0    0  0.00000000000E+00  0.00000000000E+00  0.48288754537E+02  0.94001283854E+02  0.80650093314E+02 0.  0.
       11    1    3    3    0    0 -0.24730866357E+02  0.10083742253E+02  0.59358715301E+02  0.65090357894E+02  0.00000000000E+00 0. -1.
      -12    1    3    3    0    0  0.24730866357E+02 -0.10083742253E+02 -0.11069960764E+02  0.28910925961E+02  0.00000000000E+00 0.  1.
</event>
<event>
 5   0  0.2413800E+01  0.7878259E+02  0.7957747E-01  0.1330871E+00
        1   -1    0    0  501    0  0.00000000000E+00  0.00000000000E+00  0.31474892393E+02  0.31474892393E+02  0.00000000000E+00 0. -1.
       -2   -1    0    0    0  501  0.00000000000E+00  0.00000000000E+00 -0.49298788106E+02  0.49298788106E+02  0.00000000000E+00 0.  1.
      -24    2    1    2    0    0  0.00000000000E+00  0.00000000000E+00 -0.17823895713E+02  0.80773680500E+02  0.78782588197E+02 0.  0.
       11    1    3    3    0    0  0.16117280918E+02 -0.23883012511E+02  0.18627834915E+02  0.34309783800E+02  0.00000000000E+00 0. -1.
      -12    1    3    3    0    0 -0.16117280918E+02  0.23883012511E+02 -0.36451730628E+02  0.46463896700E+02  0.00000000000E+00 0.  1.
</event>
<event>
 5   0  0.2413800E+01  0.7651249E+02  0.7957747E-01  0.1337220E+00
        3   -1    0    0  501    0  0.00000000000E+00  0.00000000000E+00  0.19806949421E+03  0.19806949421E+03  0.00000000000E+00 0. -1.
       -4   -1    0    0    0  501  0.00000000000E+00  0.00000000000E+00 -0.73890241402E+01  0.73890241402E+01  0.00000000000E+00 0.  1.
      -24    2    1    2    0    0  0.00000000000E+00  0.00000000000E+00  0.19068047007E+03  0.20545851835E+03  0.76512489809E+02 0.  0.
       11    1    3    3    0    0  0.14928137133E+02  0.33240015062E+02  0.12663196261E+03  0.13177026157E+03  0.00000000000E+00 0. -1.
      -12    1    3    3    0    0 -0.14928137133E+02 -0.33240015062E+02  0.64048507462E+02  0.73688256783E+02  0.00000000000E+00 0.  1.
</event>
<event>
 5   0  0.2413800E+01  0.8050611E+02  0.7957747E-01  0.1326210E+00
        1   -1    0    0  501    0  0.00000000000E+00  0.00000000000E+00  0.15940393540E+03  0.15940393540E+03  0.00000000000E+00 0. -1.
       -2   -1    0    0    0  501  0.00000000000E+00  0.00000000000E+00 -0.10164796137E+02  0.10164796137E+02  0.00000000000E+00 0.  1.
      -24    2    1    2    0    0  0.00000000000E+00  0.00000000000E+00  0.14923913927E+03  0.16956873154E+03  0.80506111738E+02 0.  0.
       11    1    3    3    0    0 -0.37312581867E+02  0.14040138908E+02  0.62900935461E+02  0.74470678445E+02  0.00000000000E+00 0. -1.
      -12    1    3    3    0    0  0.37312581867E+02 -0.14040138908E+02  0.86338203805E+02  0.95098053095E+02  0.00000000000E+00 0.  1.
</event>
<event>
 5   0  0.2413800E+01  0.8064646E+02  0.7957747E-01  0.1325836E+00
       -2   -1    0    0    0  501  0.00000000000E+00  0.00000000000E+00  0.28838405649E+03  0.28838405649E+03  0.00000000000E+00 0.  1.
        1   -1    0    0  501    0  0.00000000000E+00  0.00000000000E+00 -0.56381857960E+01  0.56381857960E+01  0.00000000000E+00 0. -1.
      -24    2    1    2    0    0  0.00000000000E+00  0.00000000000E+00  0.28274587070E+03  0.29402224229E+03  0.80646460334E+02 0.  0.
       11    1    3    3    0    0  0.13919512376E+02  0.61372805884E+01  0.52250304129E+01  0.16084774808E+02  0.00000000000E+00 0. -1.
      -12    1    3    3    0    0 -0.13919512376E+02 -0.61372805884E+01  0.27752084028E+03  0.27793746748E+03  0.00000000000E+00 0.  1.
</event>
<event>
 5   0  0.2413800E+01  0.8561927E+02  0.7957747E-01  0.1313125E+00
       -4   -1    0    0    0  501  0.00000000000E+00  0.00000000000E+00  0.24330983178E+03  0.24330983178E+03  0.00000000000E+00 0.  1.
        3   -1    0    0  501    0  0.00000000000E+00  0.00000000000E+00 -0.75322265459E+01  0.75322265459E+01  0.00000000000E+00 0. -1.
      -24    2    1    2    0    0  0.00000000000E+00  0.00000000000E+00  0.23577760523E+03  0.25084205833E+03  0.85619268248E+02 0.  0.
       11    1    3    3    0    0  0.31411071493E+02 -0.19105651565E+02  0.53635729222E+02  0.65026708230E+02  0.00000000000E+00 0. -1.
      -12    1    3    3    0    0 -0.31411071493E+02  0.19105651565E+02  0.18214187601E+03  0.18581535010E+03  0.00000000000E+00 0.  1.
</event>
<event>
 5   0  0.2413800E+01  0.8091433E+02  0.7957747E-01  0.1325125E+00
        1   -1    0    0  501    0  0.00000000000E+00  0.00000000000E+00  0.89570050072E+01  0.89570050072E+01  0.00000000000E+00 0. -1.
       -2   -1    0    0    0  501  0.00000000000E+00  0.00000000000E+00 -0.18273765779E+03  0.18273765779E+03  0.00000000000E+00 0.  1.
      -24    2    1    2    0    0  0.00000000000E+00  0.00000000000E+00 -0.17378065278E+03  0.19169466279E+03  0.80914327922E+02 0.  0.
       11    1    3    3    0    0  0.14734043915E+02 -0.48066419286E+01  0.16453832165E+01  0.15585350258E+02  0.00000000000E+00 0. -1.
      -12    1    3    3    0    0 -0.14734043915E+02  0.48066419286E+01 -0.17542603599E+03  0.17610931253E+03  0.00000000000E+00 0.  1.
</event>
<event>
 5   0  0.2413800E+01  0.7769565E+02  0.7957747E-01  0.1333880E+00
        1   -1    0    0  501    0  0.00000000000E+00  0.00000000000E+00  0.14551768575E+03  0.14551768575E+03  0.00000000000E+00 0. -1.
       -2   -1    0    0    0  501  0.00000000000E+00  0.00000000000E+00 -0.10370929719E+02  0.10370929719E+02  0.00000000000E+00 0.  1.
      -24    2    1    2    0    0  0.00000000000E+00  0.00000000000E+00  0.13514675603E+03  0.15588861547E+03  0.77695654748E+02 0.  0.
       11    1    3    3    0    0 -0.12117438911E+02  0.36213866468E+02  0.53262066118E+02  0.65537196594E+02  0.00000000000E+00 0. -1.
      -12    1    3    3    0    0  0.12117438911E+02 -0.36213866468E+02  0.81884689911E+02  0.90351418872E+02  0.00000000000E+00 0.  1.
</event>
<event>
 5   0  0.2413800E+01  0.9333200E+02  0.7957747E-01  0.1295225E+00
       -2   -1    0    0    0  501  0.00000000000E+00  0.00000000000E+00  0.24676503537E+02  0.24676503537E+02  0.00000000000E+00 0.  1.
        1   -1    0    0  501    0  0.00000000000E+00  0.00000000000E+00 -0.88250575077E+02  0.88250575077E+02  0.00000000000E+00 0. -1.
      -24    2    1    2    0    0  0.00000000000E+00  0.00000000000E+00 -0.63574071540E+02  0.11292707861E+03  0.93332001544E+02 0.  0.
       11    1    3    3    0    0 -0.39033251369E+02  0.17742841313E+02 -0.54074848075E+02  0.69010813099E+02  0.00000000000E+00 0. -1.
      -12    1    3    3    0    0  0.39033251369E+02 -0.17742841313E+02 -0.94992234658E+01  0.43916265515E+02  0.00000000000E+00 0.  1.
</event>
<event>
 5   0  0.2413800E+01  0.8033199E+02  0.7957747E-01  0.1326675E+00
       -2   -1    0    0    0  501  0.00000000000E+00  0.00000000000E+00  0.29796833855E+02  0.29796833855E+02  0.00000000000E+00 0.  1.
        1   -1    0    0  501    0  0.00000000000E+00  0.00000000000E+00 -0.54143581379E+02  0.54143581379E+02  0.00000000000E+00 0. -1.
      -24    2    1    2    0    0  0.00000000000E+00  0.00000000000E+00 -0.24346747523E+02  0.83940415234E+02  0.80331993594E+02 0.  0.
       11    1    3    3    0    0 -0.32726907157E+02 -0.64526248341E+01 -0.35552962864E+02  0.48751410110E+02  0.00000000000E+00 0. -1.
      -12    1    3    3    0    0  0.32726907157E+02  0.64526248341E+01  0.11206215341E+02  0.35189005124E+02  0.00000000000E+00 0.  1.
</event>
<event>
 5   0  0.2413800E+01  0.7877947E+02  0.7957747E-01  0.1330879E+00
        1   -1    0    0  501    0  0.00000000000E+00  0.00000000000E+00  0.69675552550E+02  0.69675552550E+02  0.00000000000E+00 0. -1.
       -2   -1    0    0    0  501  0.00000000000E+00  0.00000000000E+00 -0.22268229636E+02  0.22268229636E+02  0.00000000000E+00 0.  1.
      -24    2    1    2    0    0  0.00000000000E+00  0.00000000000E+00  0.47407322913E+02  0.91943782186E+02  0.78779469514E+02 0.  0.
       11    1    3    3    0    0 -0.38491947934E+02  0.31069862510E+01  0.14643166405E+02  0.41300190577E+02  0.00000000000E+00 0. -1.
      -12    1    3    3    0    0  0.38491947934E+02 -0.31069862510E+01  0.32764156509E+02  0.50643591609E+02  0.00000000000E+00 0.  1.
</event>
<event>
 5   0  0.2413800E+01  0.8769770E+02  0.7957747E-01  0.1308098E+00
        3   -1    0    0  501    0  0.00000000000E+00  0.00000000000E+00  0.23046135809E+03  0.23046135809E+03  0.00000000000E+00 0. -1.
       -4   -1    0    0    0  501  0.00000000000E+00  0.00000000000E+00 -0.83429250516E+01  0.83429250516E+01  0.00000000000E+00 0.  1.
      -24    2    1    2    0    0  0.00000000000E+00  0.00000000000E+00  0.22211843304E+03  0.23880428314E+03  0.87697704367E+02 0.  0.
       11    1    3    3    0    0  0.40977339024E+02 -0.14334338594E+02  0.94249822474E+02  0.10376726176E+03  0.00000000000E+00 0. -1.
      -12    1    3    3    0    0 -0.40977339024E+02  0.14334338594E+02  0.12786861056E+03  0.13503702138E+03  0.00000000000E+00 0.  1.
</event>
<event>
 5   0  0.2413800E+01  0.8674345E+02  0.7957747E-01  0.1310386E+00
       -4   -1    0    0    0  501  0.00000000000E+00  0.00000000000E+00  0.43143816806E+02  0.43143816806E+02  0.00000000000E+00 0.  1.
        3   -1    0    0  501    0  0.00000000000E+00  0.00000000000E+00 -0.43600834922E+02  0.43600834922E+02  0.00000000000E+00 0. -1.
      -24    2    1    2    0    0  0.00000000000E+00  0.00000000000E+00 -0.45701811635E+00  0.86744651728E+02  0.86743447810E+02 0.  0.
       11    1    3    3    0    0  0.16282894441E+02  0.38690679695E+01 -0.40241613629E+02  0.43583136713E+02  0.00000000000E+00 0. -1.
      -12    1    3    3    0    0 -0.16282894441E+02 -0.38690679695E+01  0.39784595512E+02  0.43161515015E+02  0.00000000000E+00 0.  1.
</event>
<event>
 5   0  0.2413800E+01  0.6121518E+02  0.7957747E-01  0.1387727E+00
       -2   -1    0    0    0  501  0.00000000000E+00  0.00000000000E+00  0.98432605458E+01  0.98432605458E+01  0.00000000000E+00 0.  1.
        1   -1    0    0  501    0  0.00000000000E+00  0.00000000000E+00 -0.95174199852E+02  0.95174199852E+02  0.00000000000E+00 0. -1.
      -24    2    1    2    0    0  0.00000000000E+00  0.00000000000E+00 -0.85330939306E+02  0.10501746040E+03  0.61215176105E+02 0.  0.
       11    1    3    3    0    0 -0.27880671929E+02 -0.12623273576E+02 -0.42010986266E+02  0.51976935944E+02  0.00000000000E+00 0. -1.
      -12    1    3    3    0    0  0.27880671929E+02  0.12623273576E+02 -0.43319953040E+02  0.53040524454E+02  0.00000000000E+00 0.  1.
</event>
<event>
 5   0  0.2413800E+01  0.7834150E+02  0.7957747E-01  0.1332085E+00
        1   -1    0    0  501    0  0.00000000000E+00  0.00000000000E+00  0.25418445977E+03  0.25418445977E+03  0.00000000000E+00 0. -1.
       -2   -1    0    0    0  501  0.00000000000E+00  0.00000000000E+00 -0.60363546707E+01  0.60363546707E+01  0.00000000000E+00 0.  1.
      -24    2    1    2    0    0  0.00000000000E+00  0.00000000000E+00  0.24814810510E+03  0.26022081444E+03  0.78341497330E+02 0.  0.
       11    1    3    3    0    0  0.99164867658E+01 -0.32590477109E+02  0.18830013422E+03  0.19135677791E+03  0.00000000000E+00 0. -1.
      -12    1    3    3    0    0 -0.99164867658E+01  0.32590477109E+02  0.59847970888E+02  0.68864036531E+02  0.00000000000E+00 0.  1.
</event>
<event>
 5   0  0.2413800E+01  0.7926067E+02  0.7957747E-01  0.1329564E+00
        1   -1    0    0  501    0  0.00000000000E+00  0.00000000000E+00  0.21700480494E+01  0.21700480494E+01  0.00000000000E+00 0. -1.
       -2   -1    0    0    0  501  0.00000000000E+00  0.00000000000E+00 -0.72374587514E+03  0.72374587514E+03  0.00000000000E+00 0.  1.
      -24    2    1    2    0    0  0.00000000000E+00  0.00000000000E+00 -0.72157582709E+03  0.72591592319E+03  0.79260666781E+02 0.  0.
       11    1    3    3    0    0  0.71551548759E+01  0.35286312244E+02 -0.20911899988E+03  0.21219584393E+03  0.00000000000E+00 0. -1.
      -12    1    3    3    0    0 -0.71551548759E+01 -0.35286312244E+02 -0.51245682722E+03  0.51372007926E+03  0.00000000000E+00 0.  1.
</event>
<event>
 5   0  0.2413800E+01  0.8317574E+02  0.7957747E-01  0.1319246E+00
       -2   -1    0    0    0  501  0.00000000000E+00  0.00000000000E+00  0.17343378122E+03  0.17343378122E+03  0.00000000000E+00 0.  1.
        1   -1    0    0  501    0  0.00000000000E+00  0.00000000000E+00 -0.99723998786E+01  0.99723998786E+01  0.00000000000E+00 0. -1.
      -24    2    1    2    0    0  0.00000000000E+00  0.00000000000E+00  0.16346138134E+03  0.18340618109E+03  0.83175742106E+02 0.  0.
       11    1    3    3    0    0 -0.11971468526E+02  0.23202191128E+02  0.10350810800E+02  0.28085530368E+02  0.00000000000E+00 0. -1.
      -12    1    3    3    0    0  0.11971468526E+02 -0.23202191128E+02  0.15311057054E+03  0.15532065073E+03  0.00000000000E+00 0.  1.
</event>
<event>
 5   0  0.2413800E+01  0.8033476E+02  0.7957747E-01  0.1326667E+00
        1   -1    0    0  501    0  0.00000000000E+00  0.00000000000E+00  0.13089545812E+03  0.13089545812E+03  0.00000000000E+00 0. -1.
       -2   -1    0    0    0  501  0.00000000000E+00  0.00000000000E+00 -0.12326008867E+02  0.12326008867E+02  0.00000000000E+00 0.  1.
      -24    2    1    2    0    0  0.00000000000E+00  0.00000000000E+00  0.11856944926E+03  0.14322146699E+03  0.80334764018E+02 0.  0.
       11    1    3    3    0    0  0.33324704986E+02 -0.14390526839E+02  0.28622739512E+02  0.46226447433E+02  0.00000000000E+00 0. -1.
      -12    1    3    3    0    0 -0.33324704986E+02  0.14390526839E+02  0.89946709744E+02  0.96995019557E+02  0.00000000000E+00 0.  1.
</event>
<event>
 5   0  0.2413800E+01  0.8090558E+02  0.7957747E-01  0.1325149E+00
       -2   -1    0    0    0  501  0.00000000000E+00  0.00000000000E+00  0.37203491045E+02  0.37203491045E+02  0.00000000000E+00 0.  1.
        1   -1    0    0  501    0  0.00000000000E+00  0.00000000000E+00 -0.43985875546E+02  0.43985875546E+02  0.00000000000E+00 0. -1.
      -24    2    1    2    0    0  0.00000000000E+00  0.00000000000E+00 -0.67823845013E+01  0.81189366591E+02  0.80905577731E+02 0.  0.
       11    1    3    3    0    0 -0.15882341072E+02  0.26913855244E+02 -0.29168328467E+02  0.42748049635E+02  0.00000000000E+00 0. -1.
      -12    1    3    3    0    0  0.15882341072E+02 -0.26913855244E+02  0.22385943966E+02  0.38441316956E+02  0.00000000000E+00 0.  1.
</event>
<event>
 5   0  0.2413800E+01  0.7924171E+02  0.7957747E-01  0.1329616E+00
        1   -1    0    0  501    0  0.00000000000E+00  0.00000000000E+00  0.10403320436E+01  0.10403320436E+01  0.00000000000E+00 0. -1.
       -2   -1    0    0    0  501  0.00000000000E+00  0.00000000000E+00 -0.15089529876E+04  0.15089529876E+04  0.00000000000E+00 0.  1.
      -24    2    1    2    0    0  0.00000000000E+00  0.00000000000E+00 -0.15079126556E+04  0.15099933197E+04  0.79241709860E+02 0.  0.
       11    1    3    3    0    0  0.17227713178E+02  0.32166973819E+01 -0.76835341859E+02  0.78808698771E+02  0.00000000000E+00 0. -1.
      -12    1    3    3    0    0 -0.17227713178E+02 -0.32166973819E+01 -0.14310773137E+04  0.14311846209E+04  0.00000000000E+00 0.  1.
</event>
<event>
 5   0  0.2413800E+01  0.8290671E+02  0.7957747E-01  0.1319934E+00
       -4   -1    0    0    0  501  0.00000000000E+00  0.00000000000E+00  0.40896302966E+02  0.40896302966E+02  0.00000000000E+00 0.  1.
        3   -1    0    0  501    0  0.00000000000E+00  0.00000000000E+00 -0.42017994549E+02  0.42017994549E+02  0.00000000000E+00 0. -1.
      -24    2    1    2    0    0  0.00000000000E+00  0.00000000000E+00 -0.11216915830E+01  0.82914297515E+02  0.82906709864E+02 0.  0.
       11    1    3    3    0    0  0.85691501312E+01 -0.34139728194E+02 -0.22458722836E+02  0.41753390360E+02  0.00000000000E+00 0. -1.
      -12    1    3    3    0    0 -0.85691501312E+01  0.34139728194E+02  0.21337031253E+02  0.41160907155E+02  0.00000000000E+00 0.  1.
</event>
<event>
 5   0  0.2413800E+01  0.8076280E+02  0.7957747E-01  0.1325527E+00
       -2   -1    0    0    0  501  0.00000000000E+00  0.00000000000E+00  0.26471005426E+03  0.26471005426E+03  0.00000000000E+00 0.  1.
        1   -1    0    0  501    0  0.00000000000E+00  0.00000000000E+00 -0.61601650531E+01  0.61601650531E+01  0.00000000000E+00 0. -1.
      -24    2    1    2    0    0  0.00000000000E+00  0.00000000000E+00  0.25854988921E+03  0.27087021932E+03  0.80762803950E+02 0.  0.
       11    1    3    3    0    0  0.30072650683E+02 -0.25958515191E+02  0.10498549746E+03  0.11225044992E+03  0.00000000000E+00 0. -1.
      -12    1    3    3    0    0 -0.30072650683E+02  0.25958515191E+02  0.15356439175E+03  0.15861976940E+03  0.00000000000E+00 0.  1.
</event>
<event>
 5   0  0.2413800E+01  0.8045791E+02  0.7957747E-01  0.1326339E+00
        1   -1    0    0  501    0  0.00000000000E+00  0.00000000000E+00  0.16526938526E+03  0.16526938526E+03  0.00000000000E+00 0. -1.
       -2   -1    0    0    0  501  0.00000000000E+00  0.00000000000E+00 -0.97923074919E+01  0.97923074919E+01  0.00000000000E+00 0.  1.
      -24    2    1    2    0    0  0.00000000000E+00  0.00000000000E+00  0.15547707777E+03  0.17506169276E+03  0.80457905504E+02 0.  0.
       11    1    3    3    0    0 -0.67026960789E+00  0.32895688309E+02  0.27374454097E+02  0.42801125076E+02  0.00000000000E+00 0. -1.
      -12    1    3    3    0    0  0.67026960789E+00 -0.32895688309E+02  0.12810262368E+03  0.13226056768E+03  0.00000000000E+00 0.  1.
</event>
<event>
 5   0  0.2413800E+01  0.8790612E+02  0.7957747E-01  0.1307603E+00
       -2   -1    0    0    0  501  0.00000000000E+00  0.00000000000E+00  0.74416559925E+02  0.74416559925E+02  0.00000000000E+00 0.  1.
        1   -1    0    0  501    0  0.00000000000E+00  0.00000000000E+00 -0.25960236699E+02  0.25960236699E+02  0.00000000000E+00 0. -1.
      -24    2    1    2    0    0  0.00000000000E+00  0.00000000000E+00  0.48456323226E+02  0.10037679662E+03  0.87906120605E+02 0.  0.
       11    1    3    3    0    0 -0.34832840832E+02 -0.18643108234E+02  0.22349318216E+01  0.39571292691E+02  0.00000000000E+00 0. -1.
      -12    1    3    3    0    0  0.34832840832E+02  0.18643108234E+02  0.46221391405E+02  0.60805503932E+02  0.00000000000E+00 0.  1.
</event>
<event>
 5   0  0.2413800E+01  0.8119112E+02  0.7957747E-01  0.1324394E+00
        1   -1    0    0  501    0  0.00000000000E+00  0.00000000000E+00  0.47983231287E+02  0.47983231287E+02  0.00000000000E+00 0. -1.
       -2   -1    0    0    0  501  0.00000000000E+00  0.00000000000E+00 -0.34345318265E+02  0.34345318265E+02  0.00000000000E+00 0.  1.
      -24    2    1    2    0    0  0.00000000000E+00  0.00000000000E+00  0.13637913022E+02  0.82328549553E+02  0.81191116508E+02 0.  0.
       11    1    3    3    0    0 -0.43597886771E+01  0.16704566132E+02  0.44075335378E+02  0.47335879369E+02  0.00000000000E+00 0. -1.
      -12    1    3    3    0    0  0.43597886771E+01 -0.16704566132E+02 -0.30437422356E+02  0.34992670184E+02  0.00000000000E+00 0.  1.
</event>
<event>
 5   0  0.2413800E+01  0.8951924E+02  0.7957747E-01  0.1303820E+00
       -2   -1    0    0    0  501  0.00000000000E+00  0.00000000000E+00  0.13722902427E+03  0.13722902427E+03  0.00000000000E+00 0.  1.
        1   -1    0    0  501    0  0.00000000000E+00  0.00000000000E+00 -0.14599123288E+02  0.14599123288E+02  0.00000000000E+00 0. -1.
      -24    2    1    2    0    0  0.00000000000E+00  0.00000000000E+00  0.12262990098E+03  0.15182814756E+03  0.89519236905E+02 0.  0.
       11    1    3    3    0    0  0.16269065384E+02  0.35411649336E+02  0.23972953519E+02  0.45753359413E+02  0.00000000000E+00 0. -1.
      -12    1    3    3    0    0 -0.16269065384E+02 -0.35411649336E+02  0.98656947465E+02  0.10607478815E+03  0.00000000000E+00 0.  1.
</event>
<event>
 5   0  0.2413800E+01  0.7906561E+02  0.7957747E-01  0.1330096E+00
        1   -1    0    0  501    0  0.00000000000E+00  0.00000000000E+00  0.12992470079E+03  0.12992470079E+03  0.00000000000E+00 0. -1.
       -2   -1    0    0    0  501  0.00000000000E+00  0.00000000000E+00 -0.12028835595E+02  0.12028835595E+02  0.00000000000E+00 0.  1.
      -24    2    1    2    0    0  0.00000000000E+00  0.00000000000E+00  0.11789586519E+03  0.14195353638E+03  0.79065614917E+02 0.  0.
       11    1    3    3    0    0  0.29260773146E+02 -0.16119914409E+02  0.96898157866E+02  0.10249535347E+03  0.00000000000E+00 0. -1.
      -12    1    3    3    0    0 -0.29260773146E+02  0.16119914409E+02  0.20997707326E+02  0.39458182911E+02  0.00000000000E+00 0.  1.
</event>
<event>
 5   0  0.2413800E+01  0.7894126E+02  0.7957747E-01  0.1330436E+00
       -2   -1    0    0    0  501  0.00000000000E+00  0.00000000000E+00  0.25460809565E+01  0.25460809565E+01  0.00000000000E+00 0.  1.
        1   -1    0    0  501    0  0.00000000000E+00  0.00000000000E+00 -0.61189364848E+03  0.61189364848E+03  0.00000000000E+00 0. -1.
      -24    2    1    2    0    0  0.00000000000E+00  0.00000000000E+00 -0.60934756752E+03  0.61443972943E+03  0.78941263374E+02 0.  0.
       11    1    3    3    0    0  0.32884864579E+02 -0.13129615009E+02 -0.16893479706E+03  0.17260581324E+03  0.00000000000E+00 0. -1.
      -12    1    3    3    0    0 -0.32884864579E+02  0.13129615009E+02 -0.44041277046E+03  0.44183391619E+03  0.00000000000E+00 0.  1.
</event>
<event>
 5   0  0.2413800E+01  0.8366933E+02  0.7957747E-01  0.1317990E+00
        1   -1    0    0  501    0  0.00000000000E+00  0.00000000000E+00  0.11052911646E+03  0.11052911646E+03  0.00000000000E+00 0. -1.
       -2   -1    0    0    0  501  0.00000000000E+00  0.00000000000E+00 -0.15834189648E+02  0.15834189648E+02  0.00000000000E+00 0.  1.
      -24    2    1    2    0    0  0.00000000000E+00  0.00000000000E+00  0.94694926809E+02  0.12636330611E+03  0.83669325122E+02 0.  0.
       11    1    3    3    0    0 -0.30894186052E+02  0.19855684797E+02  0.77607194076E+02  0.85857879795E+02  0.00000000000E+00 0. -1.
      -12    1    3    3    0    0  0.30894186052E+02 -0.19855684797E+02  0.17087732734E+02  0.40505426310E+02  0.00000000000E+00 0.  1.
</event>
<event>
 5   0  0.2413800E+01  0.8114043E+02  0.7957747E-01  0.1324528E+00
        1   -1    0    0  501    0  0.00000000000E+00  0.00000000000E+00  0.19325365809E+01  0.19325365809E+01  0.00000000000E+00 0. -1.
       -2   -1    0    0    0  501  0.00000000000E+00  0.00000000000E+00 -0.85170050740E+03  0.85170050740E+03  0.00000000000E+00 0.  1.
      -24    2    1    2    0    0  0.00000000000E+00  0.00000000000E+00 -0.84976797082E+03  0.85363304398E+03  0.81140431021E+02 0.  0.
       11    1    3    3    0    0 -0.21460693982E+01  0.20319832437E+02 -0.56151762529E+02  0.59753842046E+02  0.00000000000E+00 0. -1.
      -12    1    3    3    0    0  0.21460693982E+01 -0.20319832437E+02 -0.79361620829E+03  0.79387920194E+03  0.00000000000E+00 0.  1.
</event>
<event>
 5   0  0.2413800E+01  0.8120632E+02  0.7957747E-01  0.1324354E+00
       -2   -1    0    0    0  501  0.00000000000E+00  0.00000000000E+00  0.11529497066E+03  0.11529497066E+03  0.00000000000E+00 0.  1.
        1   -1    0    0  501    0  0.00000000000E+00  0.00000000000E+00 -0.14299119941E+02  0.14299119941E+02  0.00000000000E+00 0. -1.
      -24    2    1    2    0    0  0.00000000000E+00  0.00000000000E+00  0.10099585072E+03  0.12959409060E+03  0.81206320299E+02 0.  0.
       11    1    3    3    0    0 -0.55232605052E+01 -0.39787498618E+02  0.59947957526E+02  0.72161686957E+02  0.00000000000E+00 0. -1.
      -12    1    3    3    0    0  0.55232605052E+01  0.39787498618E+02  0.41047893197E+02  0.57432403648E+02  0.00000000000E+00 0.  1.
</event>
<event>
 5   0  0.2413800E+01  0.8342805E+02  0.7957747E-01  0.1318603E+00
        1   -1    0    0  501    0  0.00000000000E+00  0.00000000000E+00  0.88616567825E+02  0.88616567825E+02  0.00000000000E+00 0. -1.
       -2   -1    0    0    0  501  0.00000000000E+00  0.00000000000E+00 -0.19635828863E+02  0.19635828863E+02  0.00000000000E+00 0.  1.
      -24    2    1    2    0    0  0.00000000000E+00  0.00000000000E+00  0.68980738962E+02  0.10825239669E+03  0.83428047088E+02 0.  0.
       11    1    3    3    0    0  0.20124130315E+02 -0.35030982068E+02  0.47969291208E+02  0.62715255118E+02  0.00000000000E+00 0. -1.
      -12    1    3    3    0    0 -0.20124130315E+02  0.35030982068E+02  0.21011447754E+02  0.45537141569E+02  0.00000000000E+00 0.  1.
</event>
<event>
 5   0  0.2413800E+01  0.8043166E+02  0.7957747E-01  0.1326409E+00
        1   -1    0    0  501    0  0.00000000000E+00  0.00000000000E+00  0.41277519362E+02  0.41277519362E+02  0.00000000000E+00 0. -1.
       -2   -1    0    0    0  501  0.00000000000E+00  0.00000000000E+00 -0.39181451773E+02  0.39181451773E+02  0.00000000000E+00 0.  1.
      -24    2    1    2    0    0  0.00000000000E+00  0.00000000000E+00  0.20960675882E+01  0.80458971135E+02  0.80431663770E+02 0.  0.
       11    1    3    3    0    0  0.25251166657E+02  0.31110463005E+02 -0.23927281810E+01  0.40139848955E+02  0.00000000000E+00 0. -1.
      -12    1    3    3    0    0 -0.25251166657E+02 -0.31110463005E+02  0.44887957692E+01  0.40319122180E+02  0.00000000000E+00 0.  1.
</event>
<event>
 5   0  0.2413800E+01  0.7889330E+02  0.7957747E-01  0.1330567E+00
        1   -1    0    0  501    0  0.00000000000E+00  0.00000000000E+00  0.17008738142E+02  0.17008738142E+02  0.00000000000E+00 0. -1.
       -2   -1    0    0    0  501  0.00000000000E+00  0.00000000000E+00 -0.91484629724E+02  0.91484629724E+02  0.00000000000E+00 0.  1.
      -24    2    1    2    0    0  0.00000000000E+00  0.00000000000E+00 -0.74475891582E+02  0.10849336787E+03  0.78893297840E+02 0.  0.
       11    1    3    3    0    0  0.15594889795E+01  0.21021739017E+02  0.86137536070E+01  0.22771523190E+02  0.00000000000E+00 0. -1.
      -12    1    3    3    0    0 -0.15594889795E+01 -0.21021739017E+02 -0.83089645189E+02  0.85721844677E+02  0.00000000000E+00 0.  1.
</event>
<event>
 5   0  0.2413800E+01  0.8365818E+02  0.7957747E-01  0.1318019E+00
       -2   -1    0    0    0  501  0.00000000000E+00  0.00000000000E+00  0.64879671813E+01  0.64879671813E+01  0.00000000000E+00 0.  1.
        1   -1    0    0  501    0  0.00000000000E+00  0.00000000000E+00 -0.26967964549E+03  0.26967964549E+03  0.00000000000E+00 0. -1.
      -24    2    1    2    0    0  0.00000000000E+00  0.00000000000E+00 -0.26319167831E+03  0.27616761267E+03  0.83658178068E+02 0.  0.
       11    1    3    3    0    0  0.29656410234E+02  0.18276222709E+02 -0.20803349841E+03  0.21092998707E+03  0.00000000000E+00 0. -1.
      -12    1    3    3    0    0 -0.29656410234E+02 -0.18276222709E+02 -0.55158179900E+02  0.65237625603E+02  0.00000000000E+00 0.  1.
</event>
<event>
 5   0  0.2413800E+01  0.7977387E+02  0.7957747E-01  0.1328174E+00
       -4   -1    0    0    0  501  0.00000000000E+00  0.00000000000E+00  0.16312772053E+03  0.16312772053E+03  0.00000000000E+00 0.  1.
        3   -1    0    0  501    0  0.00000000000E+00  0.00000000000E+00 -0.97528941570E+01  0.97528941570E+01  0.00000000000E+00 0. -1.
      -24    2    1    2    0    0  0.00000000000E+00  0.00000000000E+00  0.15337482638E+03  0.17288061469E+03  0.79773865205E+02 0.  0.
       11    1    3    3    0    0 -0.24445496760E+02  0.31130620158E+01  0.87176654944E+01  0.26139455974E+02  0.00000000000E+00 0. -1.
      -12    1    3    3    0    0  0.24445496760E+02 -0.31130620158E+01  0.14465716088E+03  0.14674115872E+03  0.00000000000E+00 0.  1.
</event>
<event>
 5   0  0.2413800E+01  0.8078519E+02  0.7957747E-01  0.1325468E+00
       -2   -1    0    0    0  501  0.00000000000E+00  0.00000000000E+00  0.23842676026E+02  0.23842676026E+02  0.00000000000E+00 0.  1.
        1   -1    0    0  501    0  0.00000000000E+00  0.00000000000E+00 -0.68430305134E+02  0.68430305134E+02  0.00000000000E+00 0. -1.
      -24    2    1    2    0    0  0.00000000000E+00  0.00000000000E+00 -0.44587629109E+02  0.92272981160E+02  0.80785186653E+02 0.  0.
       11    1    3    3    0    0 -0.50211920205E+01  0.26817873904E+02 -0.56314382507E+02  0.62575717392E+02  0.00000000000E+00 0. -1.
      -12    1    3    3    0    0  0.50211920205E+01 -0.26817873904E+02  0.11726753398E+02  0.29697263768E+02  0.00000000000E+00 0.  1.
</event>
<event>
 5   0  0.2413800E+01  0.8187183E+02  0.7957747E-01  0.1322610E+00
       -2   -1    0    0    0  501  0.00000000000E+00  0.00000000000E+00  0.44616104008E+02  0.44616104008E+02  0.00000000000E+00 0.  1.
        1   -1    0    0  501    0  0.00000000000E+00  0.00000000000E+00 -0.37559288415E+02  0.37559288415E+02  0.00000000000E+00 0. -1.
      -24    2    1    2    0    0  0.00000000000E+00  0.00000000000E+00  0.70568155927E+01  0.82175392424E+02  0.81871829549E+02 0.  0.
       11    1    3    3    0    0 -0.19347030781E+02  0.13783097457E+02 -0.29933887142E+02  0.38214120100E+02  0.00000000000E+00 0. -1.
      -12    1    3    3    0    0  0.19347030781E+02 -0.13783097457E+02  0.36990702735E+02  0.43961272324E+02  0.00000000000E+00 0.  1.
</event>
<event>
 5   0  0.2413800E+01  0.8001802E+02  0.7957747E-01  0.1327516E+00
        3   -1    0    0  501    0  0.00000000000E+00  0.00000000000E+00  0.11247228489E+02  0.11247228489E+02  0.00000000000E+00 0. -1.
       -4   -1    0    0    0  501  0.00000000000E+00  0.00000000000E+00 -0.14232136821E+03  0.14232136821E+03  0.00000000000E+00 0.  1.
      -24    2    1    2    0    0  0.00000000000E+00  0.00000000000E+00 -0.13107413972E+03  0.15356859670E+03  0.80018021648E+02 0.  0.
       11    1    3    3    0    0  0.67230580606E+00 -0.32414131274E+02 -0.20545078006E+02  0.38382654046E+02  0.00000000000E+00 0. -1.
      -12    1    3    3    0    0 -0.67230580606E+00  0.32414131274E+02 -0.11052906171E+03  0.11518594265E+03  0.00000000000E+00 0.  1.
</event>
<event>
 5   0  0.2413800E+01  0.7922039E+02  0.7957747E-01  0.1329674E+00
       -4   -1    0    0    0  501  0.00000000000E+00  0.00000000000E+00  0.19205649437E+02  0.19205649437E+02  0.00000000000E+00 0.  1.
        3   -1    0    0  501    0  0.00000000000E+00  0.00000000000E+00 -0.81693013201E+02  0.81693013201E+02  0.00000000000E+00 0. -1.
      -24    2    1    2    0    0  0.00000000000E+00  0.00000000000E+00 -0.62487363763E+02  0.10089866264E+03  0.79220385583E+02 0.  0.
       11    1    3    3    0    0  0.29393073307E+02 -0.14718020045E+02 -0.59390793838E+02  0.67881067060E+02  0.00000000000E+00 0. -1.
      -12    1    3    3    0    0 -0.29393073307E+02  0.14718020045E+02 -0.30965699254E+01  0.33017595578E+02  0.00000000000E+00 0.  1.
</event>
<event>
 5   0  0.2413800E+01  0.7178396E+02  0.7957747E-01  0.1351285E+00
        3   -1    0    0  501    0  0.00000000000E+00  0.00000000000E+00  0.86500099109E+02  0.86500099109E+02  0.00000000000E+00 0. -1.
       -4   -1    0    0    0  501  0.00000000000E+00  0.00000000000E+00 -0.14892863748E+02  0.14892863748E+02  0.00000000000E+00 0.  1.
      -24    2    1    2    0    0  0.00000000000E+00  0.00000000000E+00  0.71607235361E+02  0.10139296286E+03  0.71783958939E+02 0.  0.
       11    1    3    3    0    0 -0.12653862206E+02  0.30537196764E+02  0.55557738259E+02  0.64647528146E+02  0.00000000000E+00 0. -1.
      -12    1    3    3    0    0  0.12653862206E+02 -0.30537196764E+02  0.16049497102E+02  0.36745434711E+02  0.00000000000E+00 0.  1.
</event>
<event>
 5   0  0.2413800E+01  0.8144839E+02  0.7957747E-01  0.1323717E+00
        1   -1    0    0  501    0  0.00000000000E+00  0.00000000000E+00  0.37876905103E+02  0.37876905103E+02  0.00000000000E+00 0. -1.
       -2   -1    0    0    0  501  0.00000000000E+00  0.00000000000E+00 -0.43785516790E+02  0.43785516790E+02  0.00000000000E+00 0.  1.
      -24    2    1    2    0    0  0.00000000000E+00  0.00000000000E+00 -0.59086116873E+01  0.81662421893E+02  0.81448385235E+02 0.  0.
       11    1    3    3    0    0 -0.33993113098E+02  0.92606585262E+01  0.17524066849E+02  0.39349516559E+02  0.00000000000E+00 0. -1.
      -12    1    3    3    0    0  0.33993113098E+02 -0.92606585262E+01 -0.23432678537E+02  0.42312905335E+02  0.00000000000E+00 0.  1.
</event>
<event>
 5   0  0.2413800E+01  0.8111761E+02  0.7957747E-01  0.1324588E+00
       -2   -1    0    0    0  501  0.00000000000E+00  0.00000000000E+00  0.11814974205E+02  0.11814974205E+02  0.00000000000E+00 0.  1.
        1   -1    0    0  501    0  0.00000000000E+00  0.00000000000E+00 -0.13923152368E+03  0.13923152368E+03  0.00000000000E+00 0. -1.
      -24    2    1    2    0    0  0.00000000000E+00  0.00000000000E+00 -0.12741654948E+03  0.15104649789E+03  0.81117614877E+02 0.  0.
       11    1    3    3    0    0  0.21022702474E+02  0.28478314710E+02 -0.10057761351E+03  0.10662469117E+03  0.00000000000E+00 0. -1.
      -12    1    3    3    0    0 -0.21022702474E+02 -0.28478314710E+02 -0.26838935965E+02  0.44421806714E+02  0.00000000000E+00 0.  1.
</event>
<event>
 5   0  0.2413800E+01  0.8008225E+02  0.7957747E-01  0.1327344E+00
        1   -1    0    0  501    0  0.00000000000E+00  0.00000000000E+00  0.55765834570E+02  0.55765834570E+02  0.00000000000E+00 0. -1.
       -2   -1    0    0    0  501  0.00000000000E+00  0.00000000000E+00 -0.28750426416E+02  0.28750426416E+02  0.00000000000E+00 0.  1.
      -24    2    1    2    0    0  0.00000000000E+00  0.00000000000E+00  0.27015408155E+02  0.84516260986E+02  0.80082245806E+02 0.  0.
       11    1    3    3    0    0 -0.97206938116E+01 -0.19229771763E+02  0.49125648442E+02  0.53643315941E+02  0.00000000000E+00 0. -1.
      -12    1    3    3    0    0  0.97206938116E+01  0.19229771763E+02 -0.22110240287E+02  0.30872945046E+02  0.00000000000E+00 0.  1.
</event>
<event>
 5   0  0.2413800E+01  0.8031213E+02  0.7957747E-01  0.1326728E+00
       -4   -1    0    0    0  501  0.00000000000E+00  0.00000000000E+00  0.14543585580E+03  0.14543585580E+03  0.00000000000E+00 0.  1.
        3   -1    0    0  501    0  0.00000000000E+00  0.00000000000E+00 -0.11087428413E+02  0.11087428413E+02  0.00000000000E+00 0. -1.
      -24    2    1    2    0    0  0.00000000000E+00  0.00000000000E+00  0.13434842739E+03  0.15652328421E+03  0.80312132082E+02 0.  0.
       11    1    3    3    0    0  0.28696759821E+02 -0.49318188329E+01  0.13280457774E+02  0.32003084537E+02  0.00000000000E+00 0. -1.
      -12    1    3    3    0    0 -0.28696759821E+02  0.49318188329E+01  0.12106796961E+03  0.12452019968E+03  0.00000000000E+00 0.  1.
</event>
<event>
 5   0  0.2413800E+01  0.8151505E+02  0.7957747E-01  0.1323542E+00
       -2   -1    0    0    0  501  0.00000000000E+00  0.00000000000E+00  0.11750748167E+02  0.11750748167E+02  0.00000000000E+00 0.  1.
        1   -1    0    0  501    0  0.00000000000E+00  0.00000000000E+00 -0.14136766024E+03  0.14136766024E+03  0.00000000000E+00 0. -1.
      -24    2    1    2    0    0  0.00000000000E+00  0.00000000000E+00 -0.12961691207E+03  0.15311840841E+03  0.81515048291E+02 0.  0.
       11    1    3    3    0    0 -0.26577933010E+02  0.52042830997E+01 -0.12202142586E+03  0.12499079748E+03  0.00000000000E+00 0. -1.
      -12    1    3    3    0    0  0.26577933010E+02 -0.52042830997E+01 -0.75954862119E+01  0.28127610927E+02  0.00000000000E+00 0.  1.
</event>
<event>
 5   0  0.2413800E+01  0.7853671E+02  0.7957747E-01  0.1331547E+00
        3   -1    0    0  501    0  0.00000000000E+00  0.00000000000E+00  0.22012867867E+03  0.22012867867E+03  0.00000000000E+00 0. -1.
       -4   -1    0    0    0  501  0.00000000000E+00  0.00000000000E+00 -0.70050099796E+01  0.70050099796E+01  0.00000000000E+00 0.  1.
      -24    2    1    2    0    0  0.00000000000E+00  0.00000000000E+00  0.21312366869E+03  0.22713368865E+03  0.78536707108E+02 0.  0.
       11    1    3    3    0    0  0.30753089254E+02 -0.84958812516E+01  0.17276884339E+03  0.17569008437E+03  0.00000000000E+00 0. -1.
      -12    1    3    3    0    0 -0.30753089254E+02  0.84958812516E+01  0.40354825293E+02  0.51443604280E+02  0.00000000000E+00 0.  1.
</event>
<event>
 5   0  0.2413800E+01  0.8031245E+02  0.7957747E-01  0.1326727E+00
       -2   -1    0    0    0  501  0.00000000000E+00  0.00000000000E+00  0.64053852780E+01  0.64053852780E+01  0.00000000000E+00 0.  1.
        1   -1    0    0  501    0  0.00000000000E+00  0.00000000000E+00 -0.25174479350E+03  0.25174479350E+03  0.00000000000E+00 0. -1.
      -24    2    1    2    0    0  0.00000000000E+00  0.00000000000E+00 -0.24533940822E+03  0.25815017877E+03  0.80312449697E+02 0.  0.
       11    1    3    3    0    0  0.19882251779E+02 -0.34345260418E+02 -0.14238520753E+03  0.14781220577E+03  0.00000000000E+00 0. -1.
      -12    1    3    3    0    0 -0.19882251779E+02  0.34345260418E+02 -0.10295420068E+03  0.11033797301E+03  0.00000000000E+00 0.  1.
</event>
<event>
 5   0  0.2413800E+01  0.8185181E+02  0.7957747E-01  0.1322662E+00
       -2   -1    0    0    0  501  0.00000000000E+00  0.00000000000E+00  0.13939871101E+03  0.13939871101E+03  0.00000000000E+00 0.  1.
        1   -1    0    0  501    0  0.00000000000E+00  0.00000000000E+00 -0.12015387326E+02  0.12015387326E+02  0.00000000000E+00 0. -1.
      -24    2    1    2    0    0  0.00000000000E+00  0.00000000000E+00  0.12738332369E+03  0.15141409834E+03  0.81851805246E+02 0.  0.
       11    1    3    3    0    0 -0.38828195728E+02  0.12854537241E+02  0.61035590948E+02  0.73472520533E+02  0.00000000000E+00 0. -1.
      -12    1    3    3    0    0  0.38828195728E+02 -0.12854537241E+02  0.66347732741E+02  0.77941577807E+02  0.00000000000E+00 0.  1.
</event>
<event>
 5   0  0.2413800E+01  0.7928188E+02  0.7957747E-01  0.1329507E+00
       -2   -1    0    0    0  501  0.00000000000E+00  0.00000000000E+00  0.18630197633E+01  0.18630197633E+01  0.00000000000E+00 0.  1.
        1   -1    0    0  501    0  0.00000000000E+00  0.00000000000E+00 -0.84347152392E+03  0.84347152392E+03  0.00000000000E+00 0. -1.
      -24    2    1    2    0    0  0.00000000000E+00  0.00000000000E+00 -0.84160850415E+03  0.84533454368E+03  0.79281879867E+02 0.  0.
       11    1    3    3    0    0 -0.30855387083E+02  0.14469832408E+02 -0.20491432079E+03  0.20772893353E+03  0.00000000000E+00 0. -1.
      -12    1    3    3    0    0  0.30855387083E+02 -0.14469832408E+02 -0.63669418337E+03  0.63760561015E+03  0.00000000000E+00 0.  1.
</event>
<event>
 5   0  0.2413800E+01  0.7861543E+02  0.7957747E-01  0.1331330E+00
        1   -1    0    0  501    0  0.00000000000E+00  0.00000000000E+00  0.23694769490E+03  0.23694769490E+03  0.00000000000E+00 0. -1.
       -2   -1    0    0    0  501  0.00000000000E+00  0.00000000000E+00 -0.65208329284E+01  0.65208329284E+01  0.00000000000E+00 0.  1.
      -24    2    1    2    0    0  0.00000000000E+00  0.00000000000E+00  0.23042686197E+03  0.24346852783E+03  0.78615426761E+02 0.  0.
       11    1    3    3    0    0 -0.12388327332E+02 -0.31842677954E+02  0.17539881443E+03  0.17869574952E+03  0.00000000000E+00 0. -1.
      -12    1    3    3    0    0  0.12388327332E+02  0.31842677954E+02  0.55028047538E+02  0.64772778304E+02  0.00000000000E+00 0.  1.
</event>
<event>
 5   0  0.2413800E+01  0.7628738E+02  0.7957747E-01  0.1337863E+00
       -2   -1    0    0    0  501  0.00000000000E+00  0.00000000000E+00  0.12117630199E+02  0.12117630199E+02  0.00000000000E+00 0.  1.
        1   -1    0    0  501    0  0.00000000000E+00  0.00000000000E+00 -0.12006813167E+03  0.12006813167E+03  0.00000000000E+00 0. -1.
      -24    2    1    2    0    0  0.00000000000E+00  0.00000000000E+00 -0.10795050147E+03  0.13218576187E+03  0.76287383446E+02 0.  0.
       11    1    3    3    0    0 -0.24909265465E+02 -0.13331364987E+02 -0.98380074904E+02  0.10235641620E+03  0.00000000000E+00 0. -1.
      -12    1    3    3    0    0  0.24909265465E+02  0.13331364987E+02 -0.95704265620E+01  0.29829345669E+02  0.00000000000E+00 0.  1.
</event>
<event>
 5   0  0.2413800E+01  0.7974992E+02  0.7957747E-01  0.1328238E+00
        1   -1    0    0  501    0  0.00000000000E+00  0.00000000000E+00  0.10851224632E+03  0.10851224632E+03  0.00000000000E+00 0. -1.
       -2   -1    0    0    0  501  0.00000000000E+00  0.00000000000E+00 -0.14652837774E+02  0.14652837774E+02  0.00000000000E+00 0.  1.
      -24    2    1    2    0    0  0.00000000000E+00  0.00000000000E+00  0.93859408548E+02  0.12316508410E+03  0.79749917665E+02 0.  0.
       11    1    3    3    0    0  0.23527387769E+01  0.38362494700E+02  0.30527427284E+02  0.49082992940E+02  0.00000000000E+00 0. -1.
      -12    1    3    3    0    0 -0.23527387769E+01 -0.38362494700E+02  0.63331981264E+02  0.74082091157E+02  0.00000000000E+00 0.  1.
</event>
<event>
 5   0  0.2413800E+01  0.8109097E+02  0.7957747E-01  0.1324658E+00
        1   -1    0    0  501    0  0.00000000000E+00  0.00000000000E+00  0.18495925888E+02  0.18495925888E+02  0.00000000000E+00 0. -1.
       -2   -1    0    0    0  501  0.00000000000E+00  0.00000000000E+00 -0.88881005626E+02  0.88881005626E+02  0.00000000000E+00 0.  1.
      -24    2    1    2    0    0  0.00000000000E+00  0.00000000000E+00 -0.70385079739E+02  0.10737693151E+03  0.81090973428E+02 0.  0.
       11    1    3    3    0    0 -0.22926870056E+02 -0.16041271201E+02  0.36612311141E+01  0.28219999390E+02  0.00000000000E+00 0. -1.
      -12    1    3    3    0    0  0.22926870056E+02  0.16041271201E+02 -0.74046310853E+02  0.79156932124E+02  0.00000000000E+00 0.  1.
</event>
<event>
 4   0  0.2413800E+01  0.3293683E+02  0.7957747E-01  0.1550447E+00
       -2   -1    0    0    0  501  0.00000000000E+00  0.00000000000E+00  0.40604387318E+02  0.40604387318E+02  0.00000000000E+00 0.  1.
        1   -1    0    0  501    0  0.00000000000E+00  0.00000000000E+00 -0.66792950473E+01  0.66792950473E+01  0.00000000000E+00 0. -1.
       11    1    1    2    0    0 -0.12937070540E+02 -0.27432674958E+01  0.28736390607E+01  0.13533333372E+02  0.00000000000E+00 0. -1.
      -12    1    1    2    0    0  0.12937070540E+02  0.27432674958E+01  0.31051453210E+02  0.33750348993E+02  0.00000000000E+00 0.  1.
</event>
<event>
 5   0  0.2413800E+01  0.8064655E+02  0.7957747E-01  0.1325836E+00
       -2   -1    0    0    0  501  0.00000000000E+00  0.00000000000E+00  0.25031369361E+03  0.25031369361E+03  0.00000000000E+00 0.  1.
        1   -1    0    0  501    0  0.00000000000E+00  0.00000000000E+00 -0.64957154506E+01  0.64957154506E+01  0.00000000000E+00 0. -1.
      -24    2    1    2    0    0  0.00000000000E+00  0.00000000000E+00  0.24381797816E+03  0.25680940906E+03  0.80646550505E+02 0.  0.
       11    1    3    3    0    0  0.33665563396E+02 -0.10486342674E+02  0.59619274812E+02  0.69266091781E+02  0.00000000000E+00 0. -1.
      -12    1    3    3    0    0 -0.33665563396E+02  0.10486342674E+02  0.18419870335E+03  0.18754331728E+03  0.00000000000E+00 0.  1.
</event>
<event>
 5   0  0.2413800E+01  0.1092893E+03  0.7957747E-01  0.1263703E+00
       -4   -1    0    0    0  501  0.00000000000E+00  0.00000000000E+00  0.41788027342E+02  0.41788027342E+02  0.00000000000E+00 0.  1.
        3   -1    0    0  501    0  0.00000000000E+00  0.00000000000E+00 -0.71456776929E+02  0.71456776929E+02  0.00000000000E+00 0. -1.
      -24    2    1    2    0    0  0.00000000000E+00  0.00000000000E+00 -0.29668749588E+02  0.11324480427E+03  0.10928929953E+03 0.  0.
       11    1    3    3    0    0  0.26273884575E+02 -0.30896992406E+02 -0.52780782921E+02  0.66563895591E+02  0.00000000000E+00 0. -1.
      -12    1    3    3    0    0 -0.26273884575E+02  0.30896992406E+02  0.23112033334E+02  0.46680908680E+02  0.00000000000E+00 0.  1.
</event>
<event>
 5   0  0.2413800E+01  0.8193060E+02  0.7957747E-01  0.1322456E+00
        3   -1    0    0  501    0  0.00000000000E+00  0.00000000000E+00  0.25153325672E+02  0.25153325672E+02  0.00000000000E+00 0. -1.
       -4   -1    0    0    0  501  0.00000000000E+00  0.00000000000E+00 -0.66717052161E+02  0.66717052161E+02  0.00000000000E+00 0.  1.
      -24    2    1    2    0    0  0.00000000000E+00  0.00000000000E+00 -0.41563726489E+02  0.91870377834E+02  0.81930598458E+02 0.  0.
       11    1    3    3    0    0 -0.11841233559E+02  0.30435222338E+02 -0.48513574232E+02  0.58481488146E+02  0.00000000000E+00 0. -1.
      -12    1    3    3    0    0  0.11841233559E+02 -0.30435222338E+02  0.69498477429E+01  0.33388889688E+02  0.00000000000E+00 0.  1.
</event>
<event>
 5   0  0.2413800E+01  0.7971196E+02  0.7957747E-01  0.1328341E+00
       -4   -1    0    0    0  501  0.00000000000E+00  0.00000000000E+00  0.75652095992E+02  0.75652095992E+02  0.00000000000E+00 0.  1.
        3   -1    0    0  501    0  0.00000000000E+00  0.00000000000E+00 -0.20997424400E+02  0.20997424400E+02  0.00000000000E+00 0. -1.
      -24    2    1    2    0    0  0.00000000000E+00  0.00000000000E+00  0.54654671591E+02  0.96649520392E+02  0.79711960616E+02 0.  0.
       11    1    3    3    0    0 -0.13339169690E+02 -0.35159152510E+02  0.11315206253E+02  0.39270005676E+02  0.00000000000E+00 0. -1.
      -12    1    3    3    0    0  0.13339169690E+02  0.35159152510E+02  0.43339465338E+02  0.57379514716E+02  0.00000000000E+00 0.  1.
</event>
<event>
 5   0  0.2413800E+01  0.8084102E+02  0.7957747E-01  0.1325320E+00
        1   -1    0    0  501    0  0.00000000000E+00  0.00000000000E+00  0.11170497354E+02  0.11170497354E+02  0.00000000000E+00 0. -1.
       -2   -1    0    0    0  501  0.00000000000E+00  0.00000000000E+00 -0.14626185235E+03  0.14626185235E+03  0.00000000000E+00 0.  1.
      -24    2    1    2    0    0  0.00000000000E+00  0.00000000000E+00 -0.13509135500E+03  0.15743234970E+03  0.80841020148E+02 0.  0.
       11    1    3    3    0    0  0.42285849983E+01 -0.11897066372E+02  0.72315467492E+01  0.14550477234E+02  0.00000000000E+00 0. -1.
      -12    1    3    3    0    0 -0.42285849983E+01  0.11897066372E+02 -0.14232290174E+03  0.14288187247E+03  0.00000000000E+00 0.  1.
</event>
<event>
 5   0  0.2413800E+01  0.8050457E+02  0.7957747E-01  0.1326214E+00
       -2   -1    0    0    0  501  0.00000000000E+00  0.00000000000E+00  0.24796060551E+03  0.24796060551E+03  0.00000000000E+00 0.  1.
        1   -1    0    0  501    0  0.00000000000E+00  0.00000000000E+00 -0.65342903194E+01  0.65342903194E+01  0.00000000000E+00 0. -1.
      -24    2    1    2    0    0  0.00000000000E+00  0.00000000000E+00  0.24142631519E+03  0.25449489583E+03  0.80504573391E+02 0.  0.
       11    1    3    3    0    0 -0.36869814902E+02  0.13386296601E+02  0.92144432767E+02  0.10014575716E+03  0.00000000000E+00 0. -1.
      -12    1    3    3    0    0  0.36869814902E+02 -0.13386296601E+02  0.14928188243E+03  0.15434913867E+03  0.00000000000E+00 0.  1.
</event>
<event>
 5   0  0.2413800E+01  0.7977234E+02  0.7957747E-01  0.1328178E+00
        1   -1    0    0  501    0  0.00000000000E+00  0.00000000000E+00  0.30035466422E+02  0.30035466422E+02  0.00000000000E+00 0. -1.
       -2   -1    0    0    0  501  0.00000000000E+00  0.00000000000E+00 -0.52967599628E+02  0.52967599628E+02  0.00000000000E+00 0.  1.
      -24    2    1    2    0    0  0.00000000000E+00  0.00000000000E+00 -0.22932133206E+02  0.83003066049E+02  0.79772340070E+02 0.  0.
       11    1    3    3    0    0  0.23318203174E+02  0.19699192773E+02  0.15246811110E+02  0.34121284328E+02  0.00000000000E+00 0. -1.
      -12    1    3    3    0    0 -0.23318203174E+02 -0.19699192773E+02 -0.38178944316E+02  0.48881781721E+02  0.00000000000E+00 0.  1.
</event>
<event>
 5   0  0.2413800E+01  0.8440222E+02  0.7957747E-01  0.1316144E+00
       -4   -1    0    0    0  501  0.00000000000E+00  0.00000000000E+00  0.79059291907E+02  0.79059291907E+02  0.00000000000E+00 0.  1.
        3   -1    0    0  501    0  0.00000000000E+00  0.00000000000E+00 -0.22526559984E+02  0.22526559984E+02  0.00000000000E+00 0. -1.
      -24    2    1    2    0    0  0.00000000000E+00  0.00000000000E+00  0.56532731923E+02  0.10158585189E+03  0.84402224649E+02 0.  0.
       11    1    3    3    0    0 -0.36535579560E+02 -0.92637664545E+01  0.54213145120E+01  0.38079608635E+02  0.00000000000E+00 0. -1.
      -12    1    3    3    0    0  0.36535579560E+02  0.92637664545E+01  0.51111417411E+02  0.63506243256E+02  0.00000000000E+00 0.  1.
</event>
<event>
 5   0  0.2413800E+01  0.8088705E+02  0.7957747E-01  0.1325198E+00
        1   -1    0    0  501    0  0.00000000000E+00  0.00000000000E+00  0.12104700883E+03  0.12104700883E+03  0.00000000000E+00 0. -1.
       -2   -1    0    0    0  501  0.00000000000E+00  0.00000000000E+00 -0.13512757573E+02  0.13512757573E+02  0.00000000000E+00 0.  1.
      -24    2    1    2    0    0  0.00000000000E+00  0.00000000000E+00  0.10753425125E+03  0.13455976640E+03  0.80887054222E+02 0.  0.
       11    1    3    3    0    0  0.21133371839E+02  0.16350557567E+02  0.10427224658E+03  0.10764135611E+03  0.00000000000E+00 0. -1.
      -12    1    3    3    0    0 -0.21133371839E+02 -0.16350557567E+02  0.32620046738E+01  0.26918410290E+02  0.00000000000E+00 0.  1.
</event>
<event>
 5   0  0.2413800E+01  0.8096561E+02  0.7957747E-01  0.1324990E+00
        3   -1    0    0  501    0  0.00000000000E+00  0.00000000000E+00  0.40527532655E+02  0.40527532655E+02  0.00000000000E+00 0. -1.
       -4   -1    0    0    0  501  0.00000000000E+00  0.00000000000E+00 -0.40438127849E+02  0.40438127849E+02  0.00000000000E+00 0.  1.
      -24    2    1    2    0    0  0.00000000000E+00  0.00000000000E+00  0.89404805967E-01  0.80965660505E+02  0.80965611143E+02 0.  0.
       11    1    3    3    0    0  0.24876471240E+02 -0.15505462392E+02  0.27966026014E+02  0.40513661848E+02  0.00000000000E+00 0. -1.
      -12    1    3    3    0    0 -0.24876471240E+02  0.15505462392E+02 -0.27876621208E+02  0.40451998657E+02  0.00000000000E+00 0.  1.
</event>
<event>
 5   0  0.2413800E+01  0.7988619E+02  0.7957747E-01  0.1327871E+00
        1   -1    0    0  501    0  0.00000000000E+00  0.00000000000E+00  0.14510690096E+01  0.14510690096E+01  0.00000000000E+00 0. -1.
       -2   -1    0    0    0  501  0.00000000000E+00  0.00000000000E+00 -0.10995004237E+04  0.10995004237E+04  0.00000000000E+00 0.  1.
      -24    2    1    2    0    0  0.00000000000E+00  0.00000000000E+00 -0.10980493547E+04  0.11009514927E+04  0.79886193822E+02 0.  0.
       11    1    3    3    0    0 -0.20427449837E+02 -0.10214111839E+02 -0.97411413038E+02  0.10005294687E+03  0.00000000000E+00 0. -1.
      -12    1    3    3    0    0  0.20427449837E+02  0.10214111839E+02 -0.10006379416E+04  0.10008985458E+04  0.00000000000E+00 0.  1.
</event>
<event>
 5   0  0.2413800E+01  0.8146161E+02  0.7957747E-01  0.1323683E+00
        3   -1    0    0  501    0  0.00000000000E+00  0.00000000000E+00  0.18408417864E+03  0.18408417864E+03  0.00000000000E+00 0. -1.
       -4   -1    0    0    0  501  0.00000000000E+00  0.00000000000E+00 -0.90121727001E+01  0.90121727001E+01  0.00000000000E+00 0.  1.
      -24    2    1    2    0    0  0.00000000000E+00  0.00000000000E+00  0.17507200594E+03  0.19309635134E+03  0.81461608363E+02 0.  0.
       11    1    3    3    0    0 -0.29435072200E+02  0.28127476013E+02  0.90360683827E+02  0.99109190108E+02  0.00000000000E+00 0. -1.
      -12    1    3    3    0    0  0.29435072200E+02 -0.28127476013E+02  0.84711322116E+02  0.93987161235E+02  0.00000000000E+00 0.  1.
</event>
<event>
 5   0  0.2413800E+01  0.8367639E+02  0.7957747E-01  0.1317972E+00
        1   -1    0    0  501    0  0.00000000000E+00  0.00000000000E+00  0.11852440612E+03  0.11852440612E+03  0.00000000000E+00 0. -1.
       -2   -1    0    0    0  501  0.00000000000E+00  0.00000000000E+00 -0.14768558399E+02  0.14768558399E+02  0.00000000000E+00 0.  1.
      -24    2    1    2    0    0  0.00000000000E+00  0.00000000000E+00  0.10375584772E+03  0.13329296452E+03  0.83676391258E+02 0.  0.
       11    1    3    3    0    0 -0.33679054115E+02  0.18434284784E+02  0.78358090733E+02  0.87258764173E+02  0.00000000000E+00 0. -1.
      -12    1    3    3    0    0  0.33679054115E+02 -0.18434284784E+02  0.25397756989E+02  0.46034200347E+02  0.00000000000E+00 0.  1.
</event>
<event>
 5   0  0.2413800E+01  0.8090964E+02  0.7957747E-01  0.1325138E+00
       -2   -1    0    0    0  501  0.00000000000E+00  0.00000000000E+00  0.19253727893E+03  0.19253727893E+03  0.00000000000E+00 0.  1.
        1   -1    0    0  501    0  0.00000000000E+00  0.00000000000E+00 -0.85001324608E+01  0.85001324608E+01  0.00000000000E+00 0. -1.
      -24    2    1    2    0    0  0.00000000000E+00  0.00000000000E+00  0.18403714646E+03  0.20103741139E+03  0.80909637856E+02 0.  0.
       11    1    3    3    0    0  0.15279297104E+02  0.16504381499E+02  0.84663199906E+01  0.24031856001E+02  0.00000000000E+00 0. -1.
      -12    1    3    3    0    0 -0.15279297104E+02 -0.16504381499E+02  0.17557082647E+03  0.17700555539E+03  0.00000000000E+00 0.  1.
</event>
<event>
 5   0  0.2413800E+01  0.8158478E+02  0.7957747E-01  0.1323360E+00
        1   -1    0    0  501    0  0.00000000000E+00  0.00000000000E+00  0.18192178744E+02  0.18192178744E+02  0.00000000000E+00 0. -1.
       -2   -1    0    0    0  501  0.00000000000E+00  0.00000000000E+00 -0.91468936496E+02  0.91468936496E+02  0.00000000000E+00 0.  1.
      -24    2    1    2    0    0  0.00000000000E+00  0.00000000000E+00 -0.73276757752E+02  0.10966111524E+03  0.81584783931E+02 0.  0.
       11    1    3    3    0    0  0.15209836913E+02  0.37816136164E+02 -0.38814033240E+02  0.56284353685E+02  0.00000000000E+00 0. -1.
      -12    1    3    3    0    0 -0.15209836913E+02 -0.37816136164E+02 -0.34462724512E+02  0.53376761555E+02  0.00000000000E+00 0.  1.
</event>
<event>
 4   0  0.2413800E+01  0.1254457E+03  0.7957747E-01  0.1237396E+00
       -2   -1    0    0    0  501  0.00000000000E+00  0.00000000000E+00  0.13766133180E+03  0.13766133180E+03  0.00000000000E+00 0.  1.
        1   -1    0    0  501    0  0.00000000000E+00  0.00000000000E+00 -0.28578509934E+02  0.28578509934E+02  0.00000000000E+00 0. -1.
       11    1    1    2    0    0  0.54280891049E+02  0.23899181696E+02  0.27494155906E+02  0.65372124241E+02  0.00000000000E+00 0. -1.
      -12    1    1    2    0    0 -0.54280891049E+02 -0.23899181696E+02  0.81588665956E+02  0.10086771749E+03  0.00000000000E+00 0.  1.
</event>
<event>
 5   0  0.2413800E+01  0.8096585E+02  0.7957747E-01  0.1324989E+00
        1   -1    0    0  501    0  0.00000000000E+00  0.00000000000E+00  0.73060783936E+02  0.73060783936E+02  0.00000000000E+00 0. -1.
       -2   -1    0    0    0  501  0.00000000000E+00  0.00000000000E+00 -0.22431560356E+02  0.22431560356E+02  0.00000000000E+00 0.  1.
      -24    2    1    2    0    0  0.00000000000E+00  0.00000000000E+00  0.50629223580E+02  0.95492344292E+02  0.80965854149E+02 0.  0.
       11    1    3    3    0    0  0.50940815380E+01 -0.38506408157E+02  0.11858202343E+02  0.40611699037E+02  0.00000000000E+00 0. -1.
      -12    1    3    3    0    0 -0.50940815380E+01  0.38506408157E+02  0.38771021237E+02  0.54880645255E+02  0.00000000000E+00 0.  1.
</event>
<event>
 5   0  0.2413800E+01  0.8264260E+02  0.7957747E-01  0.1320613E+00
       -2   -1    0    0    0  501  0.00000000000E+00  0.00000000000E+00  0.12447165543E+03  0.12447165543E+03  0.00000000000E+00 0.  1.
        1   -1    0    0  501    0  0.00000000000E+00  0.00000000000E+00 -0.13717580484E+02  0.13717580484E+02  0.00000000000E+00 0. -1.
      -24    2    1    2    0    0  0.00000000000E+00  0.00000000000E+00  0.11075407495E+03  0.13818923592E+03  0.82642602849E+02 0.  0.
       11    1    3    3    0    0 -0.20975072115E+02  0.17496184089E+02  0.35307415026E+01  0.27541536694E+02  0.00000000000E+00 0. -1.
      -12    1    3    3    0    0  0.20975072115E+02 -0.17496184089E+02  0.10722333345E+03  0.11064769922E+03  0.00000000000E+00 0.  1.
</event>
<event>
 5   0  0.2413800E+01  0.8589648E+02  0.7957747E-01  0.1312445E+00
        1   -1    0    0  501    0  0.00000000000E+00  0.00000000000E+00  0.79681776876E+02  0.79681776876E+02  0.00000000000E+00 0. -1.
       -2   -1    0    0    0  501  0.00000000000E+00  0.00000000000E+00 -0.23148971755E+02  0.23148971755E+02  0.00000000000E+00 0.  1.
      -24    2    1    2    0    0  0.00000000000E+00  0.00000000000E+00  0.56532805121E+02  0.10283074863E+03  0.85896477280E+02 0.  0.
       11    1    3    3    0    0 -0.22846318246E+02 -0.14213678177E+02  0.68340782383E+02  0.73446888576E+02  0.00000000000E+00 0. -1.
      -12    1    3    3    0    0  0.22846318246E+02  0.14213678177E+02 -0.11807977262E+02  0.29383860055E+02  0.00000000000E+00 0.  1.
</event>
<event>
 5   0  0.2413800E+01  0.8073535E+02  0.7957747E-01  0.1325600E+00
       -2   -1    0    0    0  501  0.00000000000E+00  0.00000000000E+00  0.63575657846E+02  0.63575657846E+02  0.00000000000E+00 0.  1.
        1   -1    0    0  501    0  0.00000000000E+00  0.00000000000E+00 -0.25631651191E+02  0.25631651191E+02  0.00000000000E+00 0. -1.
      -24    2    1    2    0    0  0.00000000000E+00  0.00000000000E+00  0.37944006655E+02  0.89207309036E+02  0.80735347553E+02 0.  0.
       11    1    3    3    0    0  0.10159233357E+02  0.10920362615E+02 -0.22475354160E+02  0.26974170731E+02  0.00000000000E+00 0. -1.
      -12    1    3    3    0    0 -0.10159233357E+02 -0.10920362615E+02  0.60419360815E+02  0.62233138305E+02  0.00000000000E+00 0.  1.
</event>
<event>
 5   0  0.2413800E+01  0.9934031E+02  0.7957747E-01  0.1282579E+00
       -2   -1    0    0    0  501  0.00000000000E+00  0.00000000000E+00  0.11469382158E+03  0.11469382158E+03  0.00000000000E+00 0.  1.
        1   -1    0    0  501    0  0.00000000000E+00  0.00000000000E+00 -0.21510523559E+02  0.21510523559E+02  0.00000000000E+00 0. -1.
      -24    2    1    2    0    0  0.00000000000E+00  0.00000000000E+00  0.93183298023E+02  0.13620434514E+03  0.99340307050E+02 0.  0.
       11    1    3    3    0    0  0.39707001830E+02  0.26579271596E+02  0.27992265819E+02  0.55377528101E+02  0.00000000000E+00 0. -1.
      -12    1    3    3    0    0 -0.39707001830E+02 -0.26579271596E+02  0.65191032204E+02  0.80826817039E+02  0.00000000000E+00 0.  1.
</event>
<event>
 5   0  0.2413800E+01  0.7811461E+02  0.7957747E-01  0.1332713E+00
       -4   -1    0    0    0  501  0.00000000000E+00  0.00000000000E+00  0.20505131617E+02  0.20505131617E+02  0.00000000000E+00 0.  1.
        3   -1    0    0  501    0  0.00000000000E+00  0.00000000000E+00 -0.74394705891E+02  0.74394705891E+02  0.00000000000E+00 0. -1.
      -24    2    1    2    0    0  0.00000000000E+00  0.00000000000E+00 -0.53889574274E+02  0.94899837508E+02  0.78114614149E+02 0.  0.
       11    1    3    3    0    0  0.96794934702E+01  0.70155746604E+01 -0.72117434215E+02  0.73101540335E+02  0.00000000000E+00 0. -1.
      -12    1    3    3    0    0 -0.96794934702E+01 -0.70155746604E+01  0.18227859940E+02  0.21798297173E+02  0.00000000000E+00 0.  1.
</event>
<event>
 5   0  0.2413800E+01  0.7662297E+02  0.7957747E-01  0.1336905E+00
       -2   -1    0    0    0  501  0.00000000000E+00  0.00000000000E+00  0.17621872473E+03  0.17621872473E+03  0.00000000000E+00 0.  1.
        1   -1    0    0  501    0  0.00000000000E+00  0.00000000000E+00 -0.83292506890E+01  0.83292506890E+01  0.00000000000E+00 0. -1.
      -24    2    1    2    0    0  0.00000000000E+00  0.00000000000E+00  0.16788947404E+03  0.18454797542E+03  0.76622971343E+02 0.  0.
       11    1    3    3    0    0 -0.31610224718E+02 -0.20537015326E+02  0.67468869135E+02  0.77285338891E+02  0.00000000000E+00 0. -1.
      -12    1    3    3    0    0  0.31610224718E+02  0.20537015326E+02  0.10042060490E+03  0.10726263653E+03  0.00000000000E+00 0.  1.
</event>
<event>
 5   0  0.2413800E+01  0.8221078E+02  0.7957747E-01  0.1321728E+00
       -2   -1    0    0    0  501  0.00000000000E+00  0.00000000000E+00  0.11161726737E+02  0.11161726737E+02  0.00000000000E+00 0.  1.
        1   -1    0    0  501    0  0.00000000000E+00  0.00000000000E+00 -0.15137916735E+03  0.15137916735E+03  0.00000000000E+00 0. -1.
      -24    2    1    2    0    0  0.00000000000E+00  0.00000000000E+00 -0.14021744062E+03  0.16254089409E+03  0.82210775442E+02 0.  0.
       11    1    3    3    0    0 -0.21599986629E+02 -0.34409812400E+02 -0.57752361789E+02  0.70611117425E+02  0.00000000000E+00 0. -1.
      -12    1    3    3    0    0  0.21599986629E+02  0.34409812400E+02 -0.82465078829E+02  0.91929776667E+02  0.00000000000E+00 0.  1.
</event>
<event>
 5   0  0.2413800E+01  0.7549032E+02  0.7957747E-01  0.1340161E+00
        1   -1    0    0  501    0  0.00000000000E+00  0.00000000000E+00  0.99249270154E+02  0.99249270154E+02  0.00000000000E+00 0. -1.
       -2   -1    0    0    0  501  0.00000000000E+00  0.00000000000E+00 -0.14354737801E+02  0.14354737801E+02  0.00000000000E+00 0.  1.
      -24    2    1    2    0    0  0.00000000000E+00  0.00000000000E+00  0.84894532353E+02  0.11360400795E+03  0.75490323883E+02 0.  0.
       11    1    3    3    0    0 -0.36796036330E+02  0.53376267512E+01  0.52230004495E+02  0.64112494246E+02  0.00000000000E+00 0. -1.
      -12    1    3    3    0    0  0.36796036330E+02 -0.53376267512E+01  0.32664527858E+02  0.49491513708E+02  0.00000000000E+00 0.  1.
</event>
<event>
 5   0  0.2413800E+01  0.7920155E+02  0.7957747E-01  0.1329725E+00
        1   -1    0    0  501    0  0.00000000000E+00  0.00000000000E+00  0.89019694180E+02  0.89019694180E+02  0.00000000000E+00 0. -1.
       -2   -1    0    0    0  501  0.00000000000E+00  0.00000000000E+00 -0.17616568151E+02  0.17616568151E+02  0.00000000000E+00 0.  1.
      -24    2    1    2    0    0  0.00000000000E+00  0.00000000000E+00  0.71403126028E+02  0.10663626233E+03  0.79201553250E+02 0.  0.
       11    1    3    3    0    0  0.12886959242E+02 -0.16400436159E+02  0.81024643238E+02  0.83666246698E+02  0.00000000000E+00 0. -1.
      -12    1    3    3    0    0 -0.12886959242E+02  0.16400436159E+02 -0.96215172100E+01  0.22970015632E+02  0.00000000000E+00 0.  1.
</event>
<event>
 5   0  0.2413800E+01  0.1045814E+03  0.7957747E-01  0.1272341E+00
        1   -1    0    0  501    0  0.00000000000E+00  0.00000000000E+00  0.21164260766E+03  0.21164260766E+03  0.00000000000E+00 0. -1.
       -2   -1    0    0    0  501  0.00000000000E+00  0.00000000000E+00 -0.12919509575E+02  0.12919509575E+02  0.00000000000E+00 0.  1.
      -24    2    1    2    0    0  0.00000000000E+00  0.00000000000E+00  0.19872309809E+03  0.22456211723E+03  0.10458142657E+03 0.  0.
       11    1    3    3    0    0  0.30628498679E+02 -0.19947826604E+02  0.17965530941E+03  0.18333589642E+03  0.00000000000E+00 0. -1.
      -12    1    3    3    0    0 -0.30628498679E+02  0.19947826604E+02  0.19067788676E+02  0.41226220813E+02  0.00000000000E+00 0.  1.
</event>
<event>
 5   0  0.2413800E+01  0.8006580E+02  0.7957747E-01  0.1327388E+00
        1   -1    0    0  501    0  0.00000000000E+00  0.00000000000E+00  0.11670882590E+02  0.11670882590E+02  0.00000000000E+00 0. -1.
       -2   -1    0    0    0  501  0.00000000000E+00  0.00000000000E+00 -0.13731891961E+03  0.13731891961E+03  0.00000000000E+00 0.  1.
      -24    2    1    2    0    0  0.00000000000E+00  0.00000000000E+00 -0.12564803702E+03  0.14898980220E+03  0.80065797645E+02 0.  0.
       11    1    3    3    0    0 -0.12904478687E+02  0.20630048359E+02 -0.36706474648E+01  0.24608903232E+02  0.00000000000E+00 0. -1.
      -12    1    3    3    0    0  0.12904478687E+02 -0.20630048359E+02 -0.12197738955E+03  0.12438089897E+03  0.00000000000E+00 0.  1.
</event>
<event>
 5   0  0.2413800E+01  0.7885282E+02  0.7957747E-01  0.1330678E+00
       -2   -1    0    0    0  501  0.00000000000E+00  0.00000000000E+00  0.16591517965E+02  0.16591517965E+02  0.00000000000E+00 0.  1.
        1   -1    0    0  501    0  0.00000000000E+00  0.00000000000E+00 -0.93688947636E+02  0.93688947636E+02  0.00000000000E+00 0. -1.
      -24    2    1    2    0    0  0.00000000000E+00  0.00000000000E+00 -0.77097429671E+02  0.11028046560E+03  0.78852821327E+02 0.  0.
       11    1    3    3    0    0  0.31360775734E+02 -0.74489719590E+01 -0.70301171407E+02  0.77338477740E+02  0.00000000000E+00 0. -1.
      -12    1    3    3    0    0 -0.31360775734E+02  0.74489719590E+01 -0.67962582643E+01  0.32941987862E+02  0.00000000000E+00 0.  1.
</event>
<event>
 5   0  0.2413800E+01  0.7966479E+02  0.7957747E-01  0.1328468E+00
        1   -1    0    0  501    0  0.00000000000E+00  0.00000000000E+00  0.34435409309E+03  0.34435409309E+03  0.00000000000E+00 0. -1.
       -2   -1    0    0    0  501  0.00000000000E+00  0.00000000000E+00 -0.46075242090E+01  0.46075242090E+01  0.00000000000E+00 0.  1.
      -24    2    1    2    0    0  0.00000000000E+00  0.00000000000E+00  0.33974656888E+03  0.34896161730E+03  0.79664793237E+02 0.  0.
       11    1    3    3    0    0 -0.26825891136E+02 -0.28924445047E+02  0.19401223301E+03  0.19798231869E+03  0.00000000000E+00 0. -1.
      -12    1    3    3    0    0  0.26825891136E+02  0.28924445047E+02  0.14573433587E+03  0.15097929861E+03  0.00000000000E+00 0.  1.
</event>
<event>
 5   0  0.2413800E+01  0.8262822E+02  0.7957747E-01  0.1320650E+00
       -4   -1    0    0    0  501  0.00000000000E+00  0.00000000000E+00  0.23049737571E+02  0.23049737571E+02  0.00000000000E+00 0.  1.
        3   -1    0    0  501    0  0.00000000000E+00  0.00000000000E+00 -0.74050987778E+02  0.74050987778E+02  0.00000000000E+00 0. -1.
      -24    2    1    2    0    0  0.00000000000E+00  0.00000000000E+00 -0.51001250207E+02  0.97100725350E+02  0.82628223633E+02 0.  0.
       11    1    3    3    0    0  0.25242158240E+02 -0.14557240321E+02 -0.59918259154E+02  0.66627903903E+02  0.00000000000E+00 0. -1.
      -12    1    3    3    0    0 -0.25242158240E+02  0.14557240321E+02  0.89170089470E+01  0.30472821447E+02  0.00000000000E+00 0.  1.
</event>
<event>
 5   0  0.2413800E+01  0.8030022E+02  0.7957747E-01  0.1326760E+00
       -2   -1    0    0    0  501  0.00000000000E+00  0.00000000000E+00  0.13426691093E+02  0.13426691093E+02  0.00000000000E+00 0.  1.
        1   -1    0    0  501    0  0.00000000000E+00  0.00000000000E+00 -0.12006170178E+03  0.12006170178E+03  0.00000000000E+00 0. -1.
      -24    2    1    2    0    0  0.00000000000E+00  0.00000000000E+00 -0.10663501069E+03  0.13348839287E+03  0.80300221218E+02 0.  0.
       11    1    3    3    0    0 -0.14662681342E+02 -0.28150434914E+02 -0.94192461919E+02  0.99396484306E+02  0.00000000000E+00 0. -1.
      -12    1    3    3    0    0  0.14662681342E+02  0.28150434914E+02 -0.12442548769E+02  0.34091908568E+02  0.00000000000E+00 0.  1.
</event>
<event>
 5   0  0.2413800E+01  0.7998873E+02  0.7957747E-01  0.1327595E+00
       -2   -1    0    0    0  501  0.00000000000E+00  0.00000000000E+00  0.46153755688E+02  0.46153755688E+02  0.00000000000E+00 0.  1.
        1   -1    0    0  501    0  0.00000000000E+00  0.00000000000E+00 -0.34656966654E+02  0.34656966654E+02  0.00000000000E+00 0. -1.
      -24    2    1    2    0    0  0.00000000000E+00  0.00000000000E+00  0.11496789034E+02  0.80810722343E+02  0.79988728503E+02 0.  0.
       11    1    3    3    0    0  0.70009269530E+01 -0.28257340602E+02 -0.21957113749E+02  0.36463750771E+02  0.00000000000E+00 0. -1.
      -12    1    3    3    0    0 -0.70009269530E+01  0.28257340602E+02  0.33453902783E+02  0.44346971571E+02  0.00000000000E+00 0.  1.
</event>
<event>
 5   0  0.2413800E+01  0.7792019E+02  0.7957747E-01  0.1333254E+00
       -4   -1    0    0    0  501  0.00000000000E+00  0.00000000000E+00  0.66446997680E+02  0.66446997680E+02  0.00000000000E+00 0.  1.
        3   -1    0    0  501    0  0.00000000000E+00  0.00000000000E+00 -0.22843604528E+02  0.22843604528E+02  0.00000000000E+00 0. -1.
      -24    2    1    2    0    0  0.00000000000E+00  0.00000000000E+00  0.43603393152E+02  0.89290602208E+02  0.77920188323E+02 0.  0.
       11    1    3    3    0    0 -0.25315526170E+02  0.55111519182E+01 -0.11541345537E+02  0.28362851012E+02  0.00000000000E+00 0. -1.
      -12    1    3    3    0    0  0.25315526170E+02 -0.55111519182E+01  0.55144738689E+02  0.60927751196E+02  0.00000000000E+00 0.  1.
</event>
<event>
 5   0  0.2413800E+01  0.8325289E+02  0.7957747E-01  0.1319049E+00
       -2   -1    0    0    0  501  0.00000000000E+00  0.00000000000E+00  0.10490851028E+02  0.10490851028E+02  0.00000000000E+00 0.  1.
        1   -1    0    0  501    0  0.00000000000E+00  0.00000000000E+00 -0.16516875817E+03  0.16516875817E+03  0.00000000000E+00 0. -1.
      -24    2    1    2    0    0  0.00000000000E+00  0.00000000000E+00 -0.15467790715E+03  0.17565960920E+03  0.83252887914E+02 0.  0.
       11    1    3    3    0    0  0.16718843782E+02  0.33531350773E+02 -0.11560359823E+03  0.12152392006E+03  0.00000000000E+00 0. -1.
      -12    1    3    3    0    0 -0.16718843782E+02 -0.33531350773E+02 -0.39074308916E+02  0.54135689146E+02  0.00000000000E+00 0.  1.
</event>
<event>
 5   0  0.2413800E+01  0.7708564E+02  0.7957747E-01  0.1335593E+00
       -4   -1    0    0    0  501  0.00000000000E+00  0.00000000000E+00  0.23811395176E+02  0.23811395176E+02  0.00000000000E+00 0.  1.
        3   -1    0    0  501    0  0.00000000000E+00  0.00000000000E+00 -0.62388146531E+02  0.62388146531E+02  0.00000000000E+00 0. -1.
      -24    2    1    2    0    0  0.00000000000E+00  0.00000000000E+00 -0.38576751355E+02  0.86199541706E+02  0.77085635791E+02 0.  0.
       11    1    3    3    0    0  0.31543552350E+02  0.41994628114E+00 -0.44050986871E+02  0.54181745026E+02  0.00000000000E+00 0. -1.
      -12    1    3    3    0    0 -0.31543552350E+02 -0.41994628114E+00  0.54742355161E+01  0.32017796680E+02  0.00000000000E+00 0.  1.
</event>
<event>
 5   0  0.2413800E+01  0.7935647E+02  0.7957747E-01  0.1329304E+00
       -2   -1    0    0    0  501  0.00000000000E+00  0.00000000000E+00  0.43504049973E+02  0.43504049973E+02  0.00000000000E+00 0.  1.
        1   -1    0    0  501    0  0.00000000000E+00  0.00000000000E+00 -0.36188870927E+02  0.36188870927E+02  0.00000000000E+00 0. -1.
      -24    2    1    2    0    0  0.00000000000E+00  0.00000000000E+00  0.73151790466E+01  0.79692920900E+02  0.79356472937E+02 0.  0.
       11    1    3    3    0    0 -0.11781118296E+02  0.16978474030E+02 -0.30357821115E+02  0.36724115123E+02  0.00000000000E+00 0. -1.
      -12    1    3    3    0    0  0.11781118296E+02 -0.16978474030E+02  0.37673000162E+02  0.42968805777E+02  0.00000000000E+00 0.  1.
</event>
<event>
 5   0  0.2413800E+01  0.8173331E+02  0.7957747E-01  0.1322971E+00
       -2   -1    0    0    0  501  0.00000000000E+00  0.00000000000E+00  0.18120724984E+02  0.18120724984E+02  0.00000000000E+00 0.  1.
        1   -1    0    0  501    0  0.00000000000E+00  0.00000000000E+00 -0.92164281312E+02  0.92164281312E+02  0.00000000000E+00 0. -1.
      -24    2    1    2    0    0  0.00000000000E+00  0.00000000000E+00 -0.74043556328E+02  0.11028500630E+03  0.81733312549E+02 0.  0.
       11    1    3    3    0    0  0.53593278177E+01  0.29636615203E+02 -0.74294303250E+02  0.80166669201E+02  0.00000000000E+00 0. -1.
      -12    1    3    3    0    0 -0.53593278177E+01 -0.29636615203E+02  0.25074692265E+00  0.30118337095E+02  0.00000000000E+00 0.  1.
</event>
<event>
 5   0  0.2413800E+01  0.8196985E+02  0.7957747E-01  0.1322354E+00
        1   -1    0    0  501    0  0.00000000000E+00  0.00000000000E+00  0.10174099963E+03  0.10174099963E+03  0.00000000000E+00 0. -1.
       -2   -1    0    0    0  501  0.00000000000E+00  0.00000000000E+00 -0.16510197826E+02  0.16510197826E+02  0.00000000000E+00 0.  1.
      -24    2    1    2    0    0  0.00000000000E+00  0.00000000000E+00  0.85230801803E+02  0.11825119746E+03  0.81969848869E+02 0.  0.
       11    1    3    3    0    0 -0.17589163407E+02 -0.22721109576E+02  0.84776804823E+02  0.89513876721E+02  0.00000000000E+00 0. -1.
      -12    1    3    3    0    0  0.17589163407E+02  0.22721109576E+02  0.45399698064E+00  0.28737320734E+02  0.00000000000E+00 0.  1.
</event>
<event>
 5   0  0.2413800E+01  0.8189059E+02  0.7957747E-01  0.1322561E+00
        1   -1    0    0  501    0  0.00000000000E+00  0.00000000000E+00  0.86306008368E+01  0.86306008368E+01  0.00000000000E+00 0. -1.
       -2   -1    0    0    0  501  0.00000000000E+00  0.00000000000E+00 -0.19425265949E+03  0.19425265949E+03  0.00000000000E+00 0.  1.
      -24    2    1    2    0    0  0.00000000000E+00  0.00000000000E+00 -0.18562205865E+03  0.20288326033E+03  0.81890589583E+02 0.  0.
       11    1    3    3    0    0 -0.14720433719E+02 -0.30011241698E+02 -0.34227313633E+02  0.47842186359E+02  0.00000000000E+00 0. -1.
      -12    1    3    3    0    0  0.14720433719E+02  0.30011241698E+02 -0.15139474502E+03  0.15504107397E+03  0.00000000000E+00 0.  1.
</event>
<event>
 5   0  0.2413800E+01  0.8020738E+02  0.7957747E-01  0.1327008E+00
       -2   -1    0    0    0  501  0.00000000000E+00  0.00000000000E+00  0.14534161685E+02  0.14534161685E+02  0.00000000000E+00 0.  1.
        1   -1    0    0  501    0  0.00000000000E+00  0.00000000000E+00 -0.11065694931E+03  0.11065694931E+03  0.00000000000E+00 0. -1.
      -24    2    1    2    0    0  0.00000000000E+00  0.00000000000E+00 -0.96122787623E+02  0.12519111099E+03  0.80207381028E+02 0.  0.
       11    1    3    3    0    0 -0.15532240517E+02  0.11450264346E+02 -0.10293444022E+03  0.10472754190E+03  0.00000000000E+00 0. -1.
      -12    1    3    3    0    0  0.15532240517E+02 -0.11450264346E+02  0.68116525943E+01  0.20463569096E+02  0.00000000000E+00 0.  1.
</event>
<event>
 5   0  0.2413800E+01  0.8096930E+02  0.7957747E-01  0.1324980E+00
       -2   -1    0    0    0  501  0.00000000000E+00  0.00000000000E+00  0.73369152214E+02  0.73369152214E+02  0.00000000000E+00 0.  1.
        1   -1    0    0  501    0  0.00000000000E+00  0.00000000000E+00 -0.22339181477E+02  0.22339181477E+02  0.00000000000E+00 0. -1.
      -24    2    1    2    0    0  0.00000000000E+00  0.00000000000E+00  0.51029970737E+02  0.95708333691E+02  0.80969298036E+02 0.  0.
       11    1    3    3    0    0 -0.20716149852E+02  0.66249333780E+01 -0.14846846719E+02  0.26333960288E+02  0.00000000000E+00 0. -1.
      -12    1    3    3    0    0  0.20716149852E+02 -0.66249333780E+01  0.65876817455E+02  0.69374373403E+02  0.00000000000E+00 0.  1.
</event>
<event>
 5   0  0.2413800E+01  0.8053288E+02  0.7957747E-01  0.1326139E+00
        1   -1    0    0  501    0  0.00000000000E+00  0.00000000000E+00  0.46227485093E+02  0.46227485093E+02  0.00000000000E+00 0. -1.
       -2   -1    0    0    0  501  0.00000000000E+00  0.00000000000E+00 -0.35074069998E+02  0.35074069998E+02  0.00000000000E+00 0.  1.
      -24    2    1    2    0    0  0.00000000000E+00  0.00000000000E+00  0.11153415094E+02  0.81301555091E+02  0.80532876466E+02 0.  0.
       11    1    3    3    0    0 -0.13786527506E+02 -0.35924539518E+02  0.17553551404E+02  0.42293829894E+02  0.00000000000E+00 0. -1.
      -12    1    3    3    0    0  0.13786527506E+02  0.35924539518E+02 -0.64001363100E+01  0.39007725197E+02  0.00000000000E+00 0.  1.
</event>
<event>
 5   0  0.2413800E+01  0.8205287E+02  0.7957747E-01  0.1322138E+00
       -2   -1    0    0    0  501  0.00000000000E+00  0.00000000000E+00  0.37651238026E+03  0.37651238026E+03  0.00000000000E+00 0.  1.
        1   -1    0    0  501    0  0.00000000000E+00  0.00000000000E+00 -0.44704198004E+01  0.44704198004E+01  0.00000000000E+00 0. -1.
      -24    2    1    2    0    0  0.00000000000E+00  0.00000000000E+00  0.37204196046E+03  0.38098280006E+03  0.82052870755E+02 0.  0.
       11    1    3    3    0    0  0.95505003135E+01 -0.36396198237E+02  0.11011268945E+03  0.11636451211E+03  0.00000000000E+00 0. -1.
      -12    1    3    3    0    0 -0.95505003135E+01  0.36396198237E+02  0.26192927101E+03  0.26461828794E+03  0.00000000000E+00 0.  1.
</event>
<event>
 5   0  0.2413800E+01  0.8095049E+02  0.7957747E-01  0.1325030E+00
        1   -1    0    0  501    0  0.00000000000E+00  0.00000000000E+00  0.42151963159E+02  0.42151963159E+02  0.00000000000E+00 0. -1.
       -2   -1    0    0    0  501  0.00000000000E+00  0.00000000000E+00 -0.38865218727E+02  0.38865218727E+02  0.00000000000E+00 0.  1.
      -24    2    1    2    0    0  0.00000000000E+00  0.00000000000E+00  0.32867444317E+01  0.81017181886E+02  0.80950485309E+02 0.  0.
       11    1    3    3    0    0 -0.75928790739E+01 -0.12870858210E+02  0.39289979038E+02  0.42035856795E+02  0.00000000000E+00 0. -1.
      -12    1    3    3    0    0  0.75928790739E+01  0.12870858210E+02 -0.36003234607E+02  0.38981325091E+02  0.00000000000E+00 0.  1.
</event>
<event>
 5   0  0.2413800E+01  0.7940219E+02  0.7957747E-01  0.1329180E+00
       -2   -1    0    0    0  501  0.00000000000E+00  0.00000000000E+00  0.60885955036E+02  0.60885955036E+02  0.00000000000E+00 0.  1.
        1   -1    0    0  501    0  0.00000000000E+00  0.00000000000E+00 -0.25887365003E+02  0.25887365003E+02  0.00000000000E+00 0. -1.
      -24    2    1    2    0    0  0.00000000000E+00  0.00000000000E+00  0.34998590033E+02  0.86773320039E+02  0.79402189934E+02 0.  0.
       11    1    3    3    0    0  0.24382970458E+02 -0.31248182523E+02  0.19991045479E+02  0.44391666546E+02  0.00000000000E+00 0. -1.
      -12    1    3    3    0    0 -0.24382970458E+02  0.31248182523E+02  0.15007544554E+02  0.42381653494E+02  0.00000000000E+00 0.  1.
</event>
<event>
 5   0  0.2413800E+01  0.8228139E+02  0.7957747E-01  0.1321545E+00
        1   -1    0    0  501    0  0.00000000000E+00  0.00000000000E+00  0.13036401185E+03  0.13036401185E+03  0.00000000000E+00 0. -1.
       -2   -1    0    0    0  501  0.00000000000E+00  0.00000000000E+00 -0.12983312176E+02  0.12983312176E+02  0.00000000000E+00 0.  1.
      -24    2    1    2    0    0  0.00000000000E+00  0.00000000000E+00  0.11738069968E+03  0.14334732403E+03  0.82281387020E+02 0.  0.
       11    1    3    3    0    0 -0.17416943875E+02 -0.28863504276E+02  0.99773745037E+02  0.10531501323E+03  0.00000000000E+00 0. -1.
      -12    1    3    3    0    0  0.17416943875E+02  0.28863504276E+02  0.17606954641E+02  0.38032310800E+02  0.00000000000E+00 0.  1.
</event>
<event>
 5   0  0.2413800E+01  0.8032120E+02  0.7957747E-01  0.1326704E+00
       -2   -1    0    0    0  501  0.00000000000E+00  0.00000000000E+00  0.54984366912E+02  0.54984366912E+02  0.00000000000E+00 0.  1.
        1   -1    0    0  501    0  0.00000000000E+00  0.00000000000E+00 -0.29333312048E+02  0.29333312048E+02  0.00000000000E+00 0. -1.
      -24    2    1    2    0    0  0.00000000000E+00  0.00000000000E+00  0.25651054863E+02  0.84317678960E+02  0.80321195021E+02 0.  0.
       11    1    3    3    0    0  0.26300252855E+02  0.40498667269E+01 -0.18750486643E+02  0.32552810479E+02  0.00000000000E+00 0. -1.
      -12    1    3    3    0    0 -0.26300252855E+02 -0.40498667269E+01  0.44401541506E+02  0.51764868481E+02  0.00000000000E+00 0.  1.
</event>
<event>
 5   0  0.2413800E+01  0.8219386E+02  0.7957747E-01  0.1321772E+00
       -2   -1    0    0    0  501  0.00000000000E+00  0.00000000000E+00  0.56671011701E+01  0.56671011701E+01  0.00000000000E+00 0.  1.
        1   -1    0    0  501    0  0.00000000000E+00  0.00000000000E+00 -0.29802847074E+03  0.29802847074E+03  0.00000000000E+00 0. -1.
      -24    2    1    2    0    0  0.00000000000E+00  0.00000000000E+00 -0.29236136957E+03  0.30369557191E+03  0.82193856103E+02 0.  0.
       11    1    3    3    0    0 -0.37808848836E+02  0.42611267843E+01 -0.20357513297E+03  0.20710021973E+03  0.00000000000E+00 0. -1.
      -12    1    3    3    0    0  0.37808848836E+02 -0.42611267843E+01 -0.88786236604E+02  0.96595352176E+02  0.00000000000E+00 0.  1.
</event>
<event>
 5   0  0.2413800E+01  0.8065381E+02  0.7957747E-01  0.1325817E+00
        1   -1    0    0  501    0  0.00000000000E+00  0.00000000000E+00  0.29639382960E+02  0.29639382960E+02  0.00000000000E+00 0. -1.
       -2   -1    0    0    0  501  0.00000000000E+00  0.00000000000E+00 -0.54868186717E+02  0.54868186717E+02  0.00000000000E+00 0.  1.
      -24    2    1    2    0    0  0.00000000000E+00  0.00000000000E+00 -0.25228803757E+02  0.84507569676E+02  0.80653808302E+02 0.  0.
       11    1    3    3    0    0 -0.59441385476E+01 -0.24711288181E+02  0.20191010839E+02  0.32460090347E+02  0.00000000000E+00 0. -1.
      -12    1    3    3    0    0  0.59441385476E+01  0.24711288181E+02 -0.45419814596E+02  0.52047479330E+02  0.00000000000E+00 0.  1.
</event>
<event>
 5   0  0.2413800E+01  0.7354775E+02  0.7957747E-01  0.1345898E+00
        1   -1    0    0  501    0  0.00000000000E+00  0.00000000000E+00  0.34585401454E+01  0.34585401454E+01  0.00000000000E+00 0. -1.
       -2   -1    0    0    0  501  0.00000000000E+00  0.00000000000E+00 -0.39100831910E+03  0.39100831910E+03  0.00000000000E+00 0.  1.
      -24    2    1    2    0    0  0.00000000000E+00  0.00000000000E+00 -0.38754977895E+03  0.39446685924E+03  0.73547752346E+02 0.  0.
       11    1    3    3    0    0  0.26202489822E+02 -0.25077583047E+02 -0.16121128463E+03  0.16524083616E+03  0.00000000000E+00 0. -1.
      -12    1    3    3    0    0 -0.26202489822E+02  0.25077583047E+02 -0.22633849432E+03  0.22922602308E+03  0.00000000000E+00 0.  1.
</event>
<event>
 5   0  0.2413800E+01  0.7979911E+02  0.7957747E-01  0.1328106E+00
       -2   -1    0    0    0  501  0.00000000000E+00  0.00000000000E+00  0.60869817065E+01  0.60869817065E+01  0.00000000000E+00 0.  1.
        1   -1    0    0  501    0  0.00000000000E+00  0.00000000000E+00 -0.26153758754E+03  0.26153758754E+03  0.00000000000E+00 0. -1.
      -24    2    1    2    0    0  0.00000000000E+00  0.00000000000E+00 -0.25545060584E+03  0.26762456925E+03  0.79799110545E+02 0.  0.
       11    1    3    3    0    0 -0.34716454990E+02 -0.19518689514E+02 -0.13577636407E+03  0.14149711137E+03  0.00000000000E+00 0. -1.
      -12    1    3    3    0    0  0.34716454990E+02  0.19518689514E+02 -0.11967424177E+03  0.12612745788E+03  0.00000000000E+00 0.  1.
</event>
<event>
 5   0  0.2413800E+01  0.7975546E+02  0.7957747E-01  0.1328223E+00
       -2   -1    0    0    0  501  0.00000000000E+00  0.00000000000E+00  0.47768456612E+02  0.47768456612E+02  0.00000000000E+00 0.  1.
        1   -1    0    0  501    0  0.00000000000E+00  0.00000000000E+00 -0.33290444483E+02  0.33290444483E+02  0.00000000000E+00 0. -1.
      -24    2    1    2    0    0  0.00000000000E+00  0.00000000000E+00  0.14478012129E+02  0.81058901095E+02  0.79755455059E+02 0.  0.
       11    1    3    3    0    0 -0.14914597422E+02 -0.34884787376E+02 -0.52433889857E+01  0.38299957371E+02  0.00000000000E+00 0. -1.
      -12    1    3    3    0    0  0.14914597422E+02  0.34884787376E+02  0.19721401114E+02  0.42758943725E+02  0.00000000000E+00 0.  1.
</event>
<event>
 5   0  0.2413800E+01  0.8067045E+02  0.7957747E-01  0.1325772E+00
        1   -1    0    0  501    0  0.00000000000E+00  0.00000000000E+00  0.57613193355E+02  0.57613193355E+02  0.00000000000E+00 0. -1.
       -2   -1    0    0    0  501  0.00000000000E+00  0.00000000000E+00 -0.28238852133E+02  0.28238852133E+02  0.00000000000E+00 0.  1.
      -24    2    1    2    0    0  0.00000000000E+00  0.00000000000E+00  0.29374341222E+02  0.85852045488E+02  0.80670451791E+02 0.  0.
       11    1    3    3    0    0 -0.36636339687E+02  0.89080192419E+01  0.29937882839E+02  0.48144065277E+02  0.00000000000E+00 0. -1.
      -12    1    3    3    0    0  0.36636339687E+02 -0.89080192419E+01 -0.56354161723E+00  0.37707980211E+02  0.00000000000E+00 0.  1.
</event>
<event>
 5   0  0.2413800E+01  0.8017599E+02  0.7957747E-01  0.1327092E+00
       -2   -1    0    0    0  501  0.00000000000E+00  0.00000000000E+00  0.29963980222E+02  0.29963980222E+02  0.00000000000E+00 0.  1.
        1   -1    0    0  501    0  0.00000000000E+00  0.00000000000E+00 -0.53632636364E+02  0.53632636364E+02  0.00000000000E+00 0. -1.
      -24    2    1    2    0    0  0.00000000000E+00  0.00000000000E+00 -0.23668656143E+02  0.83596616586E+02  0.80175987808E+02 0.  0.
       11    1    3    3    0    0 -0.36840929153E+02 -0.10575643810E+02 -0.24080591143E+02  0.45265584859E+02  0.00000000000E+00 0. -1.
      -12    1    3    3    0    0  0.36840929153E+02  0.10575643810E+02  0.41193500032E+00  0.38331031727E+02  0.00000000000E+00 0.  1.
</event>
<event>
 5   0  0.2413800E+01  0.7989813E+02  0.7957747E-01  0.1327839E+00
        1   -1    0    0  501    0  0.00000000000E+00  0.00000000000E+00  0.35774573013E+02  0.35774573013E+02  0.00000000000E+00 0. -1.
       -2   -1    0    0    0  501  0.00000000000E+00  0.00000000000E+00 -0.44610676108E+02  0.44610676108E+02  0.00000000000E+00 0.  1.
      -24    2    1    2    0    0  0.00000000000E+00  0.00000000000E+00 -0.88361030953E+01  0.80385249121E+02  0.79898132383E+02 0.  0.
       11    1    3    3    0    0 -0.62608206039E+01 -0.21800727580E+02  0.28667975592E+02  0.36555744038E+02  0.00000000000E+00 0. -1.
      -12    1    3    3    0    0  0.62608206039E+01  0.21800727580E+02 -0.37504078687E+02  0.43829505083E+02  0.00000000000E+00 0.  1.
</event>
<event>
 5   0  0.2413800E+01  0.7809067E+02  0.7957747E-01  0.1332780E+00
        1   -1    0    0  501    0  0.00000000000E+00  0.00000000000E+00  0.71043692667E+02  0.71043692667E+02  0.00000000000E+00 0. -1.
       -2   -1    0    0    0  501  0.00000000000E+00  0.00000000000E+00 -0.21459164837E+02  0.21459164837E+02  0.00000000000E+00 0.  1.
      -24    2    1    2    0    0  0.00000000000E+00  0.00000000000E+00  0.49584527829E+02  0.92502857504E+02  0.78090673235E+02 0.  0.
       11    1    3    3    0    0  0.69412457127E+00  0.15128911783E+02  0.67422701862E+02  0.69102724310E+02  0.00000000000E+00 0. -1.
      -12    1    3    3    0    0 -0.69412457127E+00 -0.15128911783E+02 -0.17838174033E+02  0.23400133194E+02  0.00000000000E+00 0.  1.
</event>
<event>
 5   0  0.2413800E+01  0.7886013E+02  0.7957747E-01  0.1330658E+00
        3   -1    0    0  501    0  0.00000000000E+00  0.00000000000E+00  0.98255416328E+02  0.98255416328E+02  0.00000000000E+00 0. -1.
       -4   -1    0    0    0  501  0.00000000000E+00  0.00000000000E+00 -0.15823350424E+02  0.15823350424E+02  0.00000000000E+00 0.  1.
      -24    2    1    2    0    0  0.00000000000E+00  0.00000000000E+00  0.82432065905E+02  0.11407876675E+03  0.78860126391E+02 0.  0.
       11    1    3    3    0    0  0.32937047960E+01 -0.23653494450E+02  0.86603060158E+02  0.89835551536E+02  0.00000000000E+00 0. -1.
      -12    1    3    3    0    0 -0.32937047960E+01  0.23653494450E+02 -0.41709942534E+01  0.24243215216E+02  0.00000000000E+00 0.  1.
</event>
<event>
 5   0  0.2413800E+01  0.7836970E+02  0.7957747E-01  0.1332007E+00
        1   -1    0    0  501    0  0.00000000000E+00  0.00000000000E+00  0.36966554897E+01  0.36966554897E+01  0.00000000000E+00 0. -1.
       -2   -1    0    0    0  501  0.00000000000E+00  0.00000000000E+00 -0.41536265467E+03  0.41536265467E+03  0.00000000000E+00 0.  1.
      -24    2    1    2    0    0  0.00000000000E+00  0.00000000000E+00 -0.41166599918E+03  0.41905931016E+03  0.78369704289E+02 0.  0.
       11    1    3    3    0    0 -0.17597723728E+02  0.15261397339E+02 -0.37343887564E+02  0.44013135171E+02  0.00000000000E+00 0. -1.
      -12    1    3    3    0    0  0.17597723728E+02 -0.15261397339E+02 -0.37432211162E+03  0.37504617499E+03  0.00000000000E+00 0.  1.
</event>
<event>
 5   0  0.2413800E+01  0.8120441E+02  0.7957747E-01  0.1324359E+00
       -2   -1    0    0    0  501  0.00000000000E+00  0.00000000000E+00  0.10086527961E+02  0.10086527961E+02  0.00000000000E+00 0.  1.
        1   -1    0    0  501    0  0.00000000000E+00  0.00000000000E+00 -0.16343970947E+03  0.16343970947E+03  0.00000000000E+00 0. -1.
      -24    2    1    2    0    0  0.00000000000E+00  0.00000000000E+00 -0.15335318151E+03  0.17352623743E+03  0.81204413659E+02 0.  0.
       11    1    3    3    0    0  0.38007945150E+01  0.24964113206E+02 -0.14461832868E+03  0.14680638262E+03  0.00000000000E+00 0. -1.
      -12    1    3    3    0    0 -0.38007945150E+01 -0.24964113206E+02 -0.87348528257E+01  0.26719854809E+02  0.00000000000E+00 0.  1.
</event>
<event>
 5   0  0.2413800E+01  0.8172322E+02  0.7957747E-01  0.1322998E+00
       -4   -1    0    0    0  501  0.00000000000E+00  0.00000000000E+00  0.10766514499E+03  0.10766514499E+03  0.00000000000E+00 0.  1.
        3   -1    0    0  501    0  0.00000000000E+00  0.00000000000E+00 -0.15508001404E+02  0.15508001404E+02  0.00000000000E+00 0. -1.
      -24    2    1    2    0    0  0.00000000000E+00  0.00000000000E+00  0.92157143585E+02  0.12317314639E+03  0.81723221170E+02 0.  0.
       11    1    3    3    0    0  0.36123053414E+02 -0.42128514589E+01  0.18000621323E+02  0.40578879646E+02  0.00000000000E+00 0. -1.
      -12    1    3    3    0    0 -0.36123053414E+02  0.42128514589E+01  0.74156522262E+02  0.82594266746E+02  0.00000000000E+00 0.  1.
</event>
<event>
 5   0  0.2413800E+01  0.8136554E+02  0.7957747E-01  0.1323935E+00
        1   -1    0    0  501    0  0.00000000000E+00  0.00000000000E+00  0.15740406398E+03  0.15740406398E+03  0.00000000000E+00 0. -1.
       -2   -1    0    0    0  501  0.00000000000E+00  0.00000000000E+00 -0.10514898311E+02  0.10514898311E+02  0.00000000000E+00 0.  1.
      -24    2    1    2    0    0  0.00000000000E+00  0.00000000000E+00  0.14688916567E+03  0.16791896229E+03  0.81365538810E+02 0.  0.
       11    1    3    3    0    0 -0.16193899486E+02 -0.36762590728E+02  0.60172619819E+02  0.72349669201E+02  0.00000000000E+00 0. -1.
      -12    1    3    3    0    0  0.16193899486E+02  0.36762590728E+02  0.86716545853E+02  0.95569293093E+02  0.00000000000E+00 0.  1.
</event>
<event>
 5   0  0.2413800E+01  0.7943896E+02  0.7957747E-01  0.1329080E+00
        3   -1    0    0  501    0  0.00000000000E+00  0.00000000000E+00  0.17051808705E+02  0.17051808705E+02  0.00000000000E+00 0. -1.
       -4   -1    0    0    0  501  0.00000000000E+00  0.00000000000E+00 -0.92520230405E+02  0.92520230405E+02  0.00000000000E+00 0.  1.
      -24    2    1    2    0    0  0.00000000000E+00  0.00000000000E+00 -0.75468421700E+02  0.10957203911E+03  0.79438964499E+02 0.  0.
       11    1    3    3    0    0  0.34306964932E+02 -0.68061568043E+01 -0.11769725036E+02  0.36902818872E+02  0.00000000000E+00 0. -1.
      -12    1    3    3    0    0 -0.34306964932E+02  0.68061568043E+01 -0.63698696664E+02  0.72669220238E+02  0.00000000000E+00 0.  1.
</event>
<event>
 5   0  0.2413800E+01  0.8086181E+02  0.7957747E-01  0.1325265E+00
       -4   -1    0    0    0  501  0.00000000000E+00  0.00000000000E+00  0.14686215521E+02  0.14686215521E+02  0.00000000000E+00 0.  1.
        3   -1    0    0  501    0  0.00000000000E+00  0.00000000000E+00 -0.11130559587E+03  0.11130559587E+03  0.00000000000E+00 0. -1.
      -24    2    1    2    0    0  0.00000000000E+00  0.00000000000E+00 -0.96619380345E+02  0.12599181139E+03  0.80861807292E+02 0.  0.
       11    1    3    3    0    0 -0.24103561212E+02 -0.20212760624E+02 -0.87884545507E+02  0.93344687552E+02  0.00000000000E+00 0. -1.
      -12    1    3    3    0    0  0.24103561212E+02  0.20212760624E+02 -0.87348348382E+01  0.32647123836E+02  0.00000000000E+00 0.  1.
</event>
<event>
 5   0  0.2413800E+01  0.8115296E+02  0.7957747E-01  0.1324495E+00
       -2   -1    0    0    0  501  0.00000000000E+00  0.00000000000E+00  0.35645351031E+03  0.35645351031E+03  0.00000000000E+00 0.  1.
        1   -1    0    0  501    0  0.00000000000E+00  0.00000000000E+00 -0.46189771122E+01  0.46189771122E+01  0.00000000000E+00 0. -1.
      -24    2    1    2    0    0  0.00000000000E+00  0.00000000000E+00  0.35183453319E+03  0.36107248742E+03  0.81152956956E+02 0.  0.
       11    1    3    3    0    0 -0.22611469443E+01 -0.22508926448E+02  0.26042711490E+02  0.34496193661E+02  0.00000000000E+00 0. -1.
      -12    1    3    3    0    0  0.22611469443E+01  0.22508926448E+02  0.32579182170E+03  0.32657629376E+03  0.00000000000E+00 0.  1.
</event>
<event>
 5   0  0.2413800E+01  0.7902684E+02  0.7957747E-01  0.1330202E+00
       -4   -1    0    0    0  501  0.00000000000E+00  0.00000000000E+00  0.55106167040E+02  0.55106167040E+02  0.00000000000E+00 0.  1.
        3   -1    0    0  501    0  0.00000000000E+00  0.00000000000E+00 -0.28332770743E+02  0.28332770743E+02  0.00000000000E+00 0. -1.
      -24    2    1    2    0    0  0.00000000000E+00  0.00000000000E+00  0.26773396297E+02  0.83438937783E+02  0.79026840941E+02 0.  0.
       11    1    3    3    0    0 -0.36566463898E+02  0.10620446385E+02  0.22422982419E+01  0.38143519303E+02  0.00000000000E+00 0. -1.
      -12    1    3    3    0    0  0.36566463898E+02 -0.10620446385E+02  0.24531098055E+02  0.45295418480E+02  0.00000000000E+00 0.  1.
</event>
<event>
 5   0  0.2413800E+01  0.8021157E+02  0.7957747E-01  0.1326997E+00
       -2   -1    0    0    0  501  0.00000000000E+00  0.00000000000E+00  0.17330840413E+02  0.17330840413E+02  0.00000000000E+00 0.  1.
        1   -1    0    0  501    0  0.00000000000E+00  0.00000000000E+00 -0.92809921648E+02  0.92809921648E+02  0.00000000000E+00 0. -1.
      -24    2    1    2    0    0  0.00000000000E+00  0.00000000000E+00 -0.75479081235E+02  0.11014076206E+03  0.80211568763E+02 0.  0.
       11    1    3    3    0    0  0.11460550982E+02 -0.38399138553E+02 -0.35510217115E+02  0.53542633387E+02  0.00000000000E+00 0. -1.
      -12    1    3    3    0    0 -0.11460550982E+02  0.38399138553E+02 -0.39968864120E+02  0.56598128675E+02  0.00000000000E+00 0.  1.
</event>
<event>
 5   0  0.2413800E+01  0.8013587E+02  0.7957747E-01  0.1327200E+00
        1   -1    0    0  501    0  0.00000000000E+00  0.00000000000E+00  0.26995252229E+01  0.26995252229E+01  0.00000000000E+00 0. -1.
       -2   -1    0    0    0  501  0.00000000000E+00  0.00000000000E+00 -0.59471173210E+03  0.59471173210E+03  0.00000000000E+00 0.  1.
      -24    2    1    2    0    0  0.00000000000E+00  0.00000000000E+00 -0.59201220688E+03  0.59741125732E+03  0.80135867653E+02 0.  0.
       11    1    3    3    0    0  0.17065176398E+02 -0.11909738902E+02 -0.40747646571E+02  0.45754047114E+02  0.00000000000E+00 0. -1.
      -12    1    3    3    0    0 -0.17065176398E+02  0.11909738902E+02 -0.55126456030E+03  0.55165721021E+03  0.00000000000E+00 0.  1.
</event>
<event>
 5   0  0.2413800E+01  0.8083103E+02  0.7957747E-01  0.1325346E+00
        1   -1    0    0  501    0  0.00000000000E+00  0.00000000000E+00  0.13322911700E+02  0.13322911700E+02  0.00000000000E+00 0. -1.
       -2   -1    0    0    0  501  0.00000000000E+00  0.00000000000E+00 -0.12260186085E+03  0.12260186085E+03  0.00000000000E+00 0.  1.
      -24    2    1    2    0    0  0.00000000000E+00  0.00000000000E+00 -0.10927894915E+03  0.13592477255E+03  0.80831027866E+02 0.  0.
       11    1    3    3    0    0  0.29303320656E+02 -0.78054395901E+01 -0.97121986637E+01  0.31842366300E+02  0.00000000000E+00 0. -1.
      -12    1    3    3    0    0 -0.29303320656E+02  0.78054395901E+01 -0.99566750489E+02  0.10408240625E+03  0.00000000000E+00 0.  1.
</event>
<event>
 5   0  0.2413800E+01  0.8008129E+02  0.7957747E-01  0.1327346E+00
       -2   -1    0    0    0  501  0.00000000000E+00  0.00000000000E+00  0.29055102301E+02  0.29055102301E+02  0.00000000000E+00 0.  1.
        1   -1    0    0  501    0  0.00000000000E+00  0.00000000000E+00 -0.55179742894E+02  0.55179742894E+02  0.00000000000E+00 0. -1.
      -24    2    1    2    0    0  0.00000000000E+00  0.00000000000E+00 -0.26124640593E+02  0.84234845195E+02  0.80081285573E+02 0.  0.
       11    1    3    3    0    0 -0.16767515487E+02 -0.27056654364E+02 -0.38612962702E+02  0.50041712696E+02  0.00000000000E+00 0. -1.
      -12    1    3    3    0    0  0.16767515487E+02  0.27056654364E+02  0.12488322109E+02  0.34193132499E+02  0.00000000000E+00 0.  1.
</event>
<event>
 5   0  0.2413800E+01  0.8161518E+02  0.7957747E-01  0.1323280E+00
        1   -1    0    0  501    0  0.00000000000E+00  0.00000000000E+00  0.43505881835E+03  0.43505881835E+03  0.00000000000E+00 0. -1.
       -2   -1    0    0    0  501  0.00000000000E+00  0.00000000000E+00 -0.38276649862E+01  0.38276649862E+01  0.00000000000E+00 0.  1.
      -24    2    1    2    0    0  0.00000000000E+00  0.00000000000E+00  0.43123115336E+03  0.43888648333E+03  0.81615180106E+02 0.  0.
       11    1    3    3    0    0  0.18973080229E+02 -0.35473975418E+02  0.17879682625E+03  0.18326670669E+03  0.00000000000E+00 0. -1.
      -12    1    3    3    0    0 -0.18973080229E+02  0.35473975418E+02  0.25243432711E+03  0.25561977664E+03  0.00000000000E+00 0.  1.
</event>
<event>
 5   0  0.2413800E+01  0.8017376E+02  0.7957747E-01  0.1327098E+00
        1   -1    0    0  501    0  0.00000000000E+00  0.00000000000E+00  0.74342218990E+02  0.74342218990E+02  0.00000000000E+00 0. -1.
       -2   -1    0    0    0  501  0.00000000000E+00  0.00000000000E+00 -0.21615682794E+02  0.21615682794E+02  0.00000000000E+00 0.  1.
      -24    2    1    2    0    0  0.00000000000E+00  0.00000000000E+00  0.52726536196E+02  0.95957901784E+02  0.80173756901E+02 0.  0.
       11    1    3    3    0    0 -0.45028423221E+01 -0.12848745575E+02  0.71490218884E+02  0.72775114207E+02  0.00000000000E+00 0. -1.
      -12    1    3    3    0    0  0.45028423221E+01  0.12848745575E+02 -0.18763682688E+02  0.23182787577E+02  0.00000000000E+00 0.  1.
</event>
<event>
 5   0  0.2413800E+01  0.8397272E+02  0.7957747E-01  0.1317224E+00
        3   -1    0    0  501    0  0.00000000000E+00  0.00000000000E+00  0.17350330512E+03  0.17350330512E+03  0.00000000000E+00 0. -1.
       -4   -1    0    0    0  501  0.00000000000E+00  0.00000000000E+00 -0.10160349734E+02  0.10160349734E+02  0.00000000000E+00 0.  1.
      -24    2    1    2    0    0  0.00000000000E+00  0.00000000000E+00  0.16334295539E+03  0.18366365486E+03  0.83972716046E+02 0.  0.
       11    1    3    3    0    0 -0.30266501775E+02  0.88408264965E+01  0.14230942786E+03  0.14576074437E+03  0.00000000000E+00 0. -1.
      -12    1    3    3    0    0  0.30266501775E+02 -0.88408264965E+01  0.21033527534E+02  0.37902910487E+02  0.00000000000E+00 0.  1.
</event>
<event>
 5   0  0.2413800E+01  0.8076479E+02  0.7957747E-01  0.1325522E+00
        1   -1    0    0  501    0  0.00000000000E+00  0.00000000000E+00  0.60241813382E+02  0.60241813382E+02  0.00000000000E+00 0. -1.
       -2   -1    0    0    0  501  0.00000000000E+00  0.00000000000E+00 -0.27069864220E+02  0.27069864220E+02  0.00000000000E+00 0.  1.
      -24    2    1    2    0    0  0.00000000000E+00  0.00000000000E+00  0.33171949162E+02  0.87311677602E+02  0.80764787095E+02 0.  0.
       11    1    3    3    0    0  0.12691659360E+02  0.47199834782E+01  0.57714368550E+02  0.59281572166E+02  0.00000000000E+00 0. -1.
      -12    1    3    3    0    0 -0.12691659360E+02 -0.47199834782E+01 -0.24542419388E+02  0.28030105436E+02  0.00000000000E+00 0.  1.
</event>
<event>
 5   0  0.2413800E+01  0.8129788E+02  0.7957747E-01  0.1324113E+00
       -2   -1    0    0    0  501  0.00000000000E+00  0.00000000000E+00  0.24112827791E+02  0.24112827791E+02  0.00000000000E+00 0.  1.
        1   -1    0    0  501    0  0.00000000000E+00  0.00000000000E+00 -0.68525192425E+02  0.68525192425E+02  0.00000000000E+00 0. -1.
      -24    2    1    2    0    0  0.00000000000E+00  0.00000000000E+00 -0.44412364634E+02  0.92638020216E+02  0.81297876092E+02 0.  0.
       11    1    3    3    0    0  0.22259431503E+02 -0.31947331163E+02 -0.35505627996E+02  0.52695008100E+02  0.00000000000E+00 0. -1.
      -12    1    3    3    0    0 -0.22259431503E+02  0.31947331163E+02 -0.89067366384E+01  0.39943012115E+02  0.00000000000E+00 0.  1.
</event>
<event>
 5   0  0.2413800E+01  0.8021976E+02  0.7957747E-01  0.1326975E+00
       -2   -1    0    0    0  501  0.00000000000E+00  0.00000000000E+00  0.21096661366E+03  0.21096661366E+03  0.00000000000E+00 0.  1.
        1   -1    0    0  501    0  0.00000000000E+00  0.00000000000E+00 -0.76258635142E+01  0.76258635142E+01  0.00000000000E+00 0. -1.
      -24    2    1    2    0    0  0.00000000000E+00  0.00000000000E+00  0.20334075015E+03  0.21859247718E+03  0.80219763197E+02 0.  0.
       11    1    3    3    0    0 -0.11588862769E+02  0.30169922993E+02  0.36941231696E+02  0.49083404455E+02  0.00000000000E+00 0. -1.
      -12    1    3    3    0    0  0.11588862769E+02 -0.30169922993E+02  0.16639951845E+03  0.16950907272E+03  0.00000000000E+00 0.  1.
</event>
<event>
 5   0  0.2413800E+01  0.8109330E+02  0.7957747E-01  0.1324652E+00
       -2   -1    0    0    0  501  0.00000000000E+00  0.00000000000E+00  0.13060534891E+03  0.13060534891E+03  0.00000000000E+00 0.  1.
        1   -1    0    0  501    0  0.00000000000E+00  0.00000000000E+00 -0.12587776610E+02  0.12587776610E+02  0.00000000000E+00 0. -1.
      -24    2    1    2    0    0  0.00000000000E+00  0.00000000000E+00  0.11801757230E+03  0.14319312552E+03  0.81093303203E+02 0.  0.
       11    1    3    3    0    0  0.35542834354E+02  0.76063356070E+01  0.90737961595E+02  0.97747261290E+02  0.00000000000E+00 0. -1.
      -12    1    3    3    0    0 -0.35542834354E+02 -0.76063356070E+01  0.27279610703E+02  0.45445864227E+02  0.00000000000E+00 0.  1.
</event>
<event>
 5   0  0.2413800E+01  0.7905717E+02  0.7957747E-01  0.1330119E+00
        1   -1    0    0  501    0  0.00000000000E+00  0.00000000000E+00  0.42085010410E+02  0.42085010410E+02  0.00000000000E+00 0. -1.
       -2   -1    0    0    0  501  0.00000000000E+00  0.00000000000E+00 -0.37127445266E+02  0.37127445266E+02  0.00000000000E+00 0.  1.
      -24    2    1    2    0    0  0.00000000000E+00  0.00000000000E+00  0.49575651444E+01  0.79212455676E+02  0.79057167177E+02 0.  0.
       11    1    3    3    0    0 -0.18674669209E+02 -0.34787023988E+02  0.43874160053E+01  0.39725680953E+02  0.00000000000E+00 0. -1.
      -12    1    3    3    0    0  0.18674669209E+02  0.34787023988E+02  0.57014913908E+00  0.39486774723E+02  0.00000000000E+00 0.  1.
</event>
<event>
 5   0  0.2413800E+01  0.8161454E+02  0.7957747E-01  0.1323282E+00
        3   -1    0    0  501    0  0.00000000000E+00  0.00000000000E+00  0.23935453274E+01  0.23935453274E+01  0.00000000000E+00 0. -1.
       -4   -1    0    0    0  501  0.00000000000E+00  0.00000000000E+00 -0.69571830349E+03  0.69571830349E+03  0.00000000000E+00 0.  1.
      -24    2    1    2    0    0  0.00000000000E+00  0.00000000000E+00 -0.69332475816E+03  0.69811184882E+03  0.81614540237E+02 0.  0.
       11    1    3    3    0    0  0.27639368691E+02 -0.11035666304E+02 -0.10784327883E+03  0.11187445383E+03  0.00000000000E+00 0. -1.
      -12    1    3    3    0    0 -0.27639368691E+02  0.11035666304E+02 -0.58548147934E+03  0.58623739498E+03  0.00000000000E+00 0.  1.
</event>
<event>
 5   0  0.2413800E+01  0.7978779E+02  0.7957747E-01  0.1328136E+00
       -2   -1    0    0    0  501  0.00000000000E+00  0.00000000000E+00  0.59236816275E+02  0.59236816275E+02  0.00000000000E+00 0.  1.
        1   -1    0    0  501    0  0.00000000000E+00  0.00000000000E+00 -0.26867126194E+02  0.26867126194E+02  0.00000000000E+00 0. -1.
      -24    2    1    2    0    0  0.00000000000E+00  0.00000000000E+00  0.32369690081E+02  0.86103942470E+02  0.79787794009E+02 0.  0.
       11    1    3    3    0    0  0.15069520486E+02 -0.33914928004E+02  0.39031594897E+00  0.37114217434E+02  0.00000000000E+00 0. -1.
      -12    1    3    3    0    0 -0.15069520486E+02  0.33914928004E+02  0.31979374132E+02  0.48989725036E+02  0.00000000000E+00 0.  1.
</event>
<event>
 5   0  0.2413800E+01  0.9104446E+02  0.7957747E-01  0.1300325E+00
        1   -1    0    0  501    0  0.00000000000E+00  0.00000000000E+00  0.42410335007E+01  0.42410335007E+01  0.00000000000E+00 0. -1.
       -2   -1    0    0    0  501  0.00000000000E+00  0.00000000000E+00 -0.48862467847E+03  0.48862467847E+03  0.00000000000E+00 0.  1.
      -24    2    1    2    0    0  0.00000000000E+00  0.00000000000E+00 -0.48438364497E+03  0.49286571197E+03  0.91044464536E+02 0.  0.
       11    1    3    3    0    0  0.12512965811E+02 -0.90796539203E+01 -0.10405931423E+02  0.18635928672E+02  0.00000000000E+00 0. -1.
      -12    1    3    3    0    0 -0.12512965811E+02  0.90796539203E+01 -0.47397771355E+03  0.47422978330E+03  0.00000000000E+00 0.  1.
</event>
<event>
 5   0  0.2413800E+01  0.8065806E+02  0.7957747E-01  0.1325805E+00
        1   -1    0    0  501    0  0.00000000000E+00  0.00000000000E+00  0.36387064253E+02  0.36387064253E+02  0.00000000000E+00 0. -1.
       -2   -1    0    0    0  501  0.00000000000E+00  0.00000000000E+00 -0.44698044773E+02  0.44698044773E+02  0.00000000000E+00 0.  1.
      -24    2    1    2    0    0  0.00000000000E+00  0.00000000000E+00 -0.83109805204E+01  0.81085109026E+02  0.80658059167E+02 0.  0.
       11    1    3    3    0    0 -0.21087918998E+02 -0.25407867965E+02  0.19122464154E+02  0.38156633991E+02  0.00000000000E+00 0. -1.
      -12    1    3    3    0    0  0.21087918998E+02  0.25407867965E+02 -0.27433444675E+02  0.42928475036E+02  0.00000000000E+00 0.  1.
</event>
<event>
 5   0  0.2413800E+01  0.7752700E+02  0.7957747E-01  0.1334352E+00
       -2   -1    0    0    0  501  0.00000000000E+00  0.00000000000E+00  0.69786650699E+01  0.69786650699E+01  0.00000000000E+00 0.  1.
        1   -1    0    0  501    0  0.00000000000E+00  0.00000000000E+00 -0.21531464569E+03  0.21531464569E+03  0.00000000000E+00 0. -1.
      -24    2    1    2    0    0  0.00000000000E+00  0.00000000000E+00 -0.20833598062E+03  0.22229331076E+03  0.77526996509E+02 0.  0.
       11    1    3    3    0    0 -0.23354861886E+02 -0.24795319946E+02 -0.15722092909E+03  0.16086851155E+03  0.00000000000E+00 0. -1.
      -12    1    3    3    0    0  0.23354861886E+02  0.24795319946E+02 -0.51115051533E+02  0.61424799211E+02  0.00000000000E+00 0.  1.
</event>
<event>
 4   0  0.2413800E+01  0.1281289E+03  0.7957747E-01  0.1233455E+00
        3   -1    0    0  501    0  0.00000000000E+00  0.00000000000E+00  0.12300441089E+03  0.12300441089E+03  0.00000000000E+00 0. -1.
       -4   -1    0    0    0  501  0.00000000000E+00  0.00000000000E+00 -0.33366742623E+02  0.33366742623E+02  0.00000000000E+00 0.  1.
       11    1    1    2    0    0  0.16730559843E+02 -0.60243817979E+02  0.61862267239E+02  0.87955496391E+02  0.00000000000E+00 0. -1.
      -12    1    1    2    0    0 -0.16730559843E+02  0.60243817979E+02  0.27775401029E+02  0.68415657124E+02  0.00000000000E+00 0.  1.
</event>
<event>
 5   0  0.2413800E+01  0.5864859E+02  0.7957747E-01  0.1397865E+00
       -4   -1    0    0    0  501  0.00000000000E+00  0.00000000000E+00  0.49651203470E+01  0.49651203470E+01  0.00000000000E+00 0.  1.
        3   -1    0    0  501    0  0.00000000000E+00  0.00000000000E+00 -0.17319099478E+03  0.17319099478E+03  0.00000000000E+00 0. -1.
      -24    2    1    2    0    0  0.00000000000E+00  0.00000000000E+00 -0.16822587443E+03  0.17815611512E+03  0.58648585049E+02 0.  0.
       11    1    3    3    0    0 -0.27607193579E+02  0.90170281993E+01 -0.71792425405E+02  0.77444278551E+02  0.00000000000E+00 0. -1.
      -12    1    3    3    0    0  0.27607193579E+02 -0.90170281993E+01 -0.96433449024E+02  0.10071183657E+03  0.00000000000E+00 0.  1.
</event>
<event>
 5   0  0.2413800E+01  0.8093338E+02  0.7957747E-01  0.1325075E+00
        3   -1    0    0  501    0  0.00000000000E+00  0.00000000000E+00  0.21979158135E+03  0.21979158135E+03  0.00000000000E+00 0. -1.
       -4   -1    0    0    0  501  0.00000000000E+00  0.00000000000E+00 -0.74504812326E+01  0.74504812326E+01  0.00000000000E+00 0.  1.
      -24    2    1    2    0    0  0.00000000000E+00  0.00000000000E+00  0.21234110011E+03  0.22724206258E+03  0.80933381294E+02 0.  0.
       11    1    3    3    0    0  0.25934594023E+02  0.16537026836E+02  0.18000342683E+03  0.18261245876E+03  0.00000000000E+00 0. -1.
      -12    1    3    3    0    0 -0.25934594023E+02 -0.16537026836E+02  0.32337673287E+02  0.44629603822E+02  0.00000000000E+00 0.  1.
</event>
<event>
 5   0  0.2413800E+01  0.8143085E+02  0.7957747E-01  0.1323763E+00
       -2   -1    0    0    0  501  0.00000000000E+00  0.00000000000E+00  0.35777930132E+02  0.35777930132E+02  0.00000000000E+00 0.  1.
        1   -1    0    0  501    0  0.00000000000E+00  0.00000000000E+00 -0.46334317440E+02  0.46334317440E+02  0.00000000000E+00 0. -1.
      -24    2    1    2    0    0  0.00000000000E+00  0.00000000000E+00 -0.10556387307E+02  0.82112247572E+02  0.81430853418E+02 0.  0.
       11    1    3    3    0    0 -0.95967889976E+01 -0.13256023400E+02 -0.42871862197E+02  0.45889182644E+02  0.00000000000E+00 0. -1.
      -12    1    3    3    0    0  0.95967889976E+01  0.13256023400E+02  0.32315474890E+02  0.36223064928E+02  0.00000000000E+00 0.  1.
</event>
<event>
 5   0  0.2413800E+01  0.8053981E+02  0.7957747E-01  0.1326120E+00
        3   -1    0    0  501    0  0.00000000000E+00  0.00000000000E+00  0.48442194270E+02  0.48442194270E+02  0.00000000000E+00 0. -1.
       -4   -1    0    0    0  501  0.00000000000E+00  0.00000000000E+00 -0.33476293286E+02  0.33476293286E+02  0.00000000000E+00 0.  1.
      -24    2    1    2    0    0  0.00000000000E+00  0.00000000000E+00  0.14965900984E+02  0.81918487555E+02  0.80539806376E+02 0.  0.
       11    1    3    3    0    0 -0.32012485218E+01 -0.31278523456E+02  0.33074558906E+02  0.45634641102E+02  0.00000000000E+00 0. -1.
      -12    1    3    3    0    0  0.32012485218E+01  0.31278523456E+02 -0.18108657922E+02  0.36283846453E+02  0.00000000000E+00 0.  1.
</event>
<event>
 5   0  0.2413800E+01  0.8047784E+02  0.7957747E-01  0.1326285E+00
        1   -1    0    0  501    0  0.00000000000E+00  0.00000000000E+00  0.18970229859E+02  0.18970229859E+02  0.00000000000E+00 0. -1.
       -2   -1    0    0    0  501  0.00000000000E+00  0.00000000000E+00 -0.85353236579E+02  0.85353236579E+02  0.00000000000E+00 0.  1.
      -24    2    1    2    0    0  0.00000000000E+00  0.00000000000E+00 -0.66383006720E+02  0.10432346644E+03  0.80477835882E+02 0.  0.
       11    1    3    3    0    0  0.60631709440E+01 -0.13000872834E+02  0.15542947731E+02  0.21151074689E+02  0.00000000000E+00 0. -1.
      -12    1    3    3    0    0 -0.60631709440E+01  0.13000872834E+02 -0.81925954451E+02  0.83172391748E+02  0.00000000000E+00 0.  1.
</event>
<event>
 5   0  0.2413800E+01  0.7717175E+02  0.7957747E-01  0.1335351E+00
       -2   -1    0    0    0  501  0.00000000000E+00  0.00000000000E+00  0.16069155599E+02  0.16069155599E+02  0.00000000000E+00 0.  1.
        1   -1    0    0  501    0  0.00000000000E+00  0.00000000000E+00 -0.92653880054E+02  0.92653880054E+02  0.00000000000E+00 0. -1.
      -24    2    1    2    0    0  0.00000000000E+00  0.00000000000E+00 -0.76584724455E+02  0.10872303565E+03  0.77171746525E+02 0.  0.
       11    1    3    3    0    0 -0.83719424447E+01 -0.31471496901E+02 -0.67449842599E+02  0.74900105502E+02  0.00000000000E+00 0. -1.
      -12    1    3    3    0    0  0.83719424447E+01  0.31471496901E+02 -0.91348818552E+01  0.33822930151E+02  0.00000000000E+00 0.  1.
</event>
<event>
 5   0  0.2413800E+01  0.7873655E+02  0.7957747E-01  0.1330997E+00
        1   -1    0    0  501    0  0.00000000000E+00  0.00000000000E+00  0.82673274388E+01  0.82673274388E+01  0.00000000000E+00 0. -1.
       -2   -1    0    0    0  501  0.00000000000E+00  0.00000000000E+00 -0.18746819018E+03  0.18746819018E+03  0.00000000000E+00 0.  1.
      -24    2    1    2    0    0  0.00000000000E+00  0.00000000000E+00 -0.17920086274E+03  0.19573551762E+03  0.78736545837E+02 0.  0.
       11    1    3    3    0    0  0.14369650713E+02 -0.28075957546E+02 -0.31029163091E+02  0.44244267604E+02  0.00000000000E+00 0. -1.
      -12    1    3    3    0    0 -0.14369650713E+02  0.28075957546E+02 -0.14817169965E+03  0.15149125001E+03  0.00000000000E+00 0.  1.
</event>
<event>
 5   0  0.2413800E+01  0.7662893E+02  0.7957747E-01  0.1336888E+00
        1   -1    0    0  501    0  0.00000000000E+00  0.00000000000E+00  0.44843041030E+02  0.44843041030E+02  0.00000000000E+00 0. -1.
       -2   -1    0    0    0  501  0.00000000000E+00  0.00000000000E+00 -0.32736368464E+02  0.32736368464E+02  0.00000000000E+00 0.  1.
      -24    2    1    2    0    0  0.00000000000E+00  0.00000000000E+00  0.12106672566E+02  0.77579409494E+02  0.76628932244E+02 0.  0.
       11    1    3    3    0    0 -0.16215562396E+02 -0.34267217662E+02  0.11673010401E+02  0.39666684282E+02  0.00000000000E+00 0. -1.
      -12    1    3    3    0    0  0.16215562396E+02  0.34267217662E+02  0.43366216443E+00  0.37912725212E+02  0.00000000000E+00 0.  1.
</event>
<event>
 5   0  0.2413800E+01  0.8046451E+02  0.7957747E-01  0.1326321E+00
       -2   -1    0    0    0  501  0.00000000000E+00  0.00000000000E+00  0.68211663991E+02  0.68211663991E+02  0.00000000000E+00 0.  1.
        1   -1    0    0  501    0  0.00000000000E+00  0.00000000000E+00 -0.23729581328E+02  0.23729581328E+02  0.00000000000E+00 0. -1.
      -24    2    1    2    0    0  0.00000000000E+00  0.00000000000E+00  0.44482082663E+02  0.91941245319E+02  0.80464507161E+02 0.  0.
       11    1    3    3    0    0 -0.33167502087E+02  0.59477781491E+01 -0.28754077583E+01  0.33819036494E+02  0.00000000000E+00 0. -1.
      -12    1    3    3    0    0  0.33167502087E+02 -0.59477781491E+01  0.47357490421E+02  0.58122208824E+02  0.00000000000E+00 0.  1.
</event>
<event>
 5   0  0.2413800E+01  0.8860480E+02  0.7957747E-01  0.1305953E+00
        1   -1    0    0  501    0  0.00000000000E+00  0.00000000000E+00  0.14963957286E+03  0.14963957286E+03  0.00000000000E+00 0. -1.
       -2   -1    0    0    0  501  0.00000000000E+00  0.00000000000E+00 -0.13116201970E+02  0.13116201970E+02  0.00000000000E+00 0.  1.
      -24    2    1    2    0    0  0.00000000000E+00  0.00000000000E+00  0.13652337089E+03  0.16275577483E+03  0.88604804844E+02 0.  0.
       11    1    3    3    0    0 -0.12281501467E+02 -0.39366310771E+02  0.98003215510E+02  0.10632578216E+03  0.00000000000E+00 0. -1.
      -12    1    3    3    0    0  0.12281501467E+02  0.39366310771E+02  0.38520155377E+02  0.56429992666E+02  0.00000000000E+00 0.  1.
</event>
<event>
 5   0  0.2413800E+01  0.8082925E+02  0.7957747E-01  0.1325351E+00
       -4   -1    0    0    0  501  0.00000000000E+00  0.00000000000E+00  0.19881793202E+02  0.19881793202E+02  0.00000000000E+00 0.  1.
        3   -1    0    0  501    0  0.00000000000E+00  0.00000000000E+00 -0.82152651735E+02  0.82152651735E+02  0.00000000000E+00 0. -1.
      -24    2    1    2    0    0  0.00000000000E+00  0.00000000000E+00 -0.62270858533E+02  0.10203444494E+03  0.80829252942E+02 0.  0.
       11    1    3    3    0    0 -0.30123319453E+02 -0.11904859532E+02 -0.61646661866E+02  0.69637999502E+02  0.00000000000E+00 0. -1.
      -12    1    3    3    0    0  0.30123319453E+02  0.11904859532E+02 -0.62419666636E+00  0.32396445435E+02  0.00000000000E+00 0.  1.
</event>
<event>
 4   0  0.2413800E+01  0.3222755E+02  0.7957747E-01  0.1556859E+00
       -4   -1    0    0    0  501  0.00000000000E+00  0.00000000000E+00  0.66127287589E+01  0.66127287589E+01  0.00000000000E+00 0.  1.
        3   -1    0    0  501    0  0.00000000000E+00  0.00000000000E+00 -0.39265756364E+02  0.39265756364E+02  0.00000000000E+00 0. -1.
       11    1    1    2    0    0  0.61649692052E+01 -0.14804977780E+02 -0.18559122252E+02  0.24528253731E+02  0.00000000000E+00 0. -1.
      -12    1    1    2    0    0 -0.61649692052E+01  0.14804977780E+02 -0.14093905353E+02  0.21350231391E+02  0.00000000000E+00 0.  1.
</event>
<event>
 5   0  0.2413800E+01  0.7947502E+02  0.7957747E-01  0.1328982E+00
       -4   -1    0    0    0  501  0.00000000000E+00  0.00000000000E+00  0.24508255851E+03  0.24508255851E+03  0.00000000000E+00 0.  1.
        3   -1    0    0  501    0  0.00000000000E+00  0.00000000000E+00 -0.64430115777E+01  0.64430115777E+01  0.00000000000E+00 0. -1.
      -24    2    1    2    0    0  0.00000000000E+00  0.00000000000E+00  0.23863954693E+03  0.25152557009E+03  0.79475021534E+02 0.  0.
       11    1    3    3    0    0  0.28724749023E+02  0.19389982482E+02  0.57789336827E+02  0.67384642746E+02  0.00000000000E+00 0. -1.
      -12    1    3    3    0    0 -0.28724749023E+02 -0.19389982482E+02  0.18085021011E+03  0.18414092734E+03  0.00000000000E+00 0.  1.
</event>
<event>
 5   0  0.2413800E+01  0.8171702E+02  0.7957747E-01  0.1323014E+00
        3   -1    0    0  501    0  0.00000000000E+00  0.00000000000E+00  0.37542292443E+02  0.37542292443E+02  0.00000000000E+00 0. -1.
       -4   -1    0    0    0  501  0.00000000000E+00  0.00000000000E+00 -0.44467657567E+02  0.44467657567E+02  0.00000000000E+00 0.  1.
      -24    2    1    2    0    0  0.00000000000E+00  0.00000000000E+00 -0.69253651243E+01  0.82009950010E+02  0.81717019148E+02 0.  0.
       11    1    3    3    0    0  0.21291481185E+02 -0.69210636358E+01  0.30838625532E+02  0.38108386447E+02  0.00000000000E+00 0. -1.
      -12    1    3    3    0    0 -0.21291481185E+02  0.69210636358E+01 -0.37763990656E+02  0.43901563562E+02  0.00000000000E+00 0.  1.
</event>
<event>
 5   0  0.2413800E+01  0.8128752E+02  0.7957747E-01  0.1324140E+00
        1   -1    0    0  501    0  0.00000000000E+00  0.00000000000E+00  0.11565273517E+02  0.11565273517E+02  0.00000000000E+00 0. -1.
       -2   -1    0    0    0  501  0.00000000000E+00  0.00000000000E+00 -0.14283406786E+03  0.14283406786E+03  0.00000000000E+00 0.  1.
      -24    2    1    2    0    0  0.00000000000E+00  0.00000000000E+00 -0.13126879434E+03  0.15439934137E+03  0.81287515948E+02 0.  0.
       11    1    3    3    0    0 -0.12691320158E+02 -0.30888192588E+02 -0.21628215071E+02  0.39786049513E+02  0.00000000000E+00 0. -1.
      -12    1    3    3    0    0  0.12691320158E+02  0.30888192588E+02 -0.10964057927E+03  0.11461329186E+03  0.00000000000E+00 0.  1.
</event>
<event>
 5   0  0.2413800E+01  0.8108177E+02  0.7957747E-01  0.1324683E+00
       -2   -1    0    0    0  501  0.00000000000E+00  0.00000000000E+00  0.53739381871E+02  0.53739381871E+02  0.00000000000E+00 0.  1.
        1   -1    0    0  501    0  0.00000000000E+00  0.00000000000E+00 -0.30583961048E+02  0.30583961048E+02  0.00000000000E+00 0. -1.
      -24    2    1    2    0    0  0.00000000000E+00  0.00000000000E+00  0.23155420823E+02  0.84323342918E+02  0.81081765197E+02 0.  0.
       11    1    3    3    0    0 -0.81446868511E+00  0.37001553051E+02 -0.56302479344E+01  0.37436318986E+02  0.00000000000E+00 0. -1.
      -12    1    3    3    0    0  0.81446868511E+00 -0.37001553051E+02  0.28785668757E+02  0.46887023932E+02  0.00000000000E+00 0.  1.
</event>
<event>
 5   0  0.2413800E+01  0.8004562E+02  0.7957747E-01  0.1327442E+00
        3   -1    0    0  501    0  0.00000000000E+00  0.00000000000E+00  0.30729934855E+03  0.30729934855E+03  0.00000000000E+00 0. -1.
       -4   -1    0    0    0  501  0.00000000000E+00  0.00000000000E+00 -0.52125887421E+01  0.52125887421E+01  0.00000000000E+00 0.  1.
      -24    2    1    2    0    0  0.00000000000E+00  0.00000000000E+00  0.30208675981E+03  0.31251193729E+03  0.80045615113E+02 0.  0.
       11    1    3    3    0    0 -0.27651988860E+02 -0.27975949372E+02  0.17987587495E+03  0.18412663202E+03  0.00000000000E+00 0. -1.
      -12    1    3    3    0    0  0.27651988860E+02  0.27975949372E+02  0.12221088486E+03  0.12838530527E+03  0.00000000000E+00 0.  1.
</event>
<event>
 5   0  0.2413800E+01  0.7136028E+02  0.7957747E-01  0.1352605E+00
       -2   -1    0    0    0  501  0.00000000000E+00  0.00000000000E+00  0.32795472345E+02  0.32795472345E+02  0.00000000000E+00 0.  1.
        1   -1    0    0  501    0  0.00000000000E+00  0.00000000000E+00 -0.38818540304E+02  0.38818540304E+02  0.00000000000E+00 0. -1.
      -24    2    1    2    0    0  0.00000000000E+00  0.00000000000E+00 -0.60230679595E+01  0.71614012649E+02  0.71360279288E+02 0.  0.
       11    1    3    3    0    0 -0.11754416655E+02  0.28905853665E+02 -0.20375009869E+02  0.37267354536E+02  0.00000000000E+00 0. -1.
      -12    1    3    3    0    0  0.11754416655E+02 -0.28905853665E+02  0.14351941909E+02  0.34346658113E+02  0.00000000000E+00 0.  1.
</event>
<event>
 5   0  0.2413800E+01  0.7850152E+02  0.7957747E-01  0.1331644E+00
       -2   -1    0    0    0  501  0.00000000000E+00  0.00000000000E+00  0.53912913442E+02  0.53912913442E+02  0.00000000000E+00 0.  1.
        1   -1    0    0  501    0  0.00000000000E+00  0.00000000000E+00 -0.28576127375E+02  0.28576127375E+02  0.00000000000E+00 0. -1.
      -24    2    1    2    0    0  0.00000000000E+00  0.00000000000E+00  0.25336786067E+02  0.82489040817E+02  0.78501523085E+02 0.  0.
       11    1    3    3    0    0 -0.24828177396E+02 -0.23523171822E+02 -0.75671079431E+01  0.35029118288E+02  0.00000000000E+00 0. -1.
      -12    1    3    3    0    0  0.24828177396E+02  0.23523171822E+02  0.32903894011E+02  0.47459922529E+02  0.00000000000E+00 0.  1.
</event>
<event>
 5   0  0.2413800E+01  0.8397331E+02  0.7957747E-01  0.1317222E+00
       -2   -1    0    0    0  501  0.00000000000E+00  0.00000000000E+00  0.17259926374E+02  0.17259926374E+02  0.00000000000E+00 0.  1.
        1   -1    0    0  501    0  0.00000000000E+00  0.00000000000E+00 -0.10213712662E+03  0.10213712662E+03  0.00000000000E+00 0. -1.
      -24    2    1    2    0    0  0.00000000000E+00  0.00000000000E+00 -0.84877200244E+02  0.11939705299E+03  0.83973312081E+02 0.  0.
       11    1    3    3    0    0 -0.10006492866E+02  0.29893020508E+02 -0.81871593089E+02  0.87730726257E+02  0.00000000000E+00 0. -1.
      -12    1    3    3    0    0  0.10006492866E+02 -0.29893020508E+02 -0.30056071550E+01  0.31666326735E+02  0.00000000000E+00 0.  1.
</event>
<event>
 5   0  0.2413800E+01  0.7936709E+02  0.7957747E-01  0.1329275E+00
        3   -1    0    0  501    0  0.00000000000E+00  0.00000000000E+00  0.11188872290E+03  0.11188872290E+03  0.00000000000E+00 0. -1.
       -4   -1    0    0    0  501  0.00000000000E+00  0.00000000000E+00 -0.14074554213E+02  0.14074554213E+02  0.00000000000E+00 0.  1.
      -24    2    1    2    0    0  0.00000000000E+00  0.00000000000E+00  0.97814168685E+02  0.12596327711E+03  0.79367093844E+02 0.  0.
       11    1    3    3    0    0 -0.32235011399E+01 -0.35308792197E+02  0.77194929486E+02  0.84947977635E+02  0.00000000000E+00 0. -1.
      -12    1    3    3    0    0  0.32235011399E+01  0.35308792197E+02  0.20619239199E+02  0.41015299477E+02  0.00000000000E+00 0.  1.
</event>
<event>
 5   0  0.2413800E+01  0.8089240E+02  0.7957747E-01  0.1325183E+00
        3   -1    0    0  501    0  0.00000000000E+00  0.00000000000E+00  0.12393438402E+03  0.12393438402E+03  0.00000000000E+00 0. -1.
       -4   -1    0    0    0  501  0.00000000000E+00  0.00000000000E+00 -0.13199685946E+02  0.13199685946E+02  0.00000000000E+00 0.  1.
      -24    2    1    2    0    0  0.00000000000E+00  0.00000000000E+00  0.11073469808E+03  0.13713406997E+03  0.80892396355E+02 0.  0.
       11    1    3    3    0    0  0.19472474366E+02  0.47636200850E+01  0.11491981524E+03  0.11665518963E+03  0.00000000000E+00 0. -1.
      -12    1    3    3    0    0 -0.19472474366E+02 -0.47636200850E+01 -0.41851171581E+01  0.20478880337E+02  0.00000000000E+00 0.  1.
</event>
<event>
 5   0  0.2413800E+01  0.7779115E+02  0.7957747E-01  0.1333613E+00
       -2   -1    0    0    0  501  0.00000000000E+00  0.00000000000E+00  0.14184462484E+02  0.14184462484E+02  0.00000000000E+00 0.  1.
        1   -1    0    0  501    0  0.00000000000E+00  0.00000000000E+00 -0.10665654680E+03  0.10665654680E+03  0.00000000000E+00 0. -1.
      -24    2    1    2    0    0  0.00000000000E+00  0.00000000000E+00 -0.92472084319E+02  0.12084100929E+03  0.77791150827E+02 0.  0.
       11    1    3    3    0    0 -0.36905053142E+02  0.87575083613E+01 -0.59615963932E+02  0.70659323912E+02  0.00000000000E+00 0. -1.
      -12    1    3    3    0    0  0.36905053142E+02 -0.87575083613E+01 -0.32856120387E+02  0.50181685374E+02  0.00000000000E+00 0.  1.
</event>
<event>
 5   0  0.2413800E+01  0.8150930E+02  0.7957747E-01  0.1323558E+00
        1   -1    0    0  501    0  0.00000000000E+00  0.00000000000E+00  0.37675718183E+02  0.37675718183E+02  0.00000000000E+00 0. -1.
       -2   -1    0    0    0  501  0.00000000000E+00  0.00000000000E+00 -0.44085196493E+02  0.44085196493E+02  0.00000000000E+00 0.  1.
      -24    2    1    2    0    0  0.00000000000E+00  0.00000000000E+00 -0.64094783100E+01  0.81760914675E+02  0.81509298588E+02 0.  0.
       11    1    3    3    0    0  0.49816842246E+01 -0.31179886479E+02  0.22641815270E+02  0.38854270001E+02  0.00000000000E+00 0. -1.
      -12    1    3    3    0    0 -0.49816842246E+01  0.31179886479E+02 -0.29051293580E+02  0.42906644674E+02  0.00000000000E+00 0.  1.
</event>
<event>
 5   0  0.2413800E+01  0.8011680E+02  0.7957747E-01  0.1327251E+00
       -4   -1    0    0    0  501  0.00000000000E+00  0.00000000000E+00  0.13778045473E+02  0.13778045473E+02  0.00000000000E+00 0.  1.
        3   -1    0    0  501    0  0.00000000000E+00  0.00000000000E+00 -0.11646610225E+03  0.11646610225E+03  0.00000000000E+00 0. -1.
      -24    2    1    2    0    0  0.00000000000E+00  0.00000000000E+00 -0.10268805678E+03  0.13024414772E+03  0.80116796063E+02 0.  0.
       11    1    3    3    0    0 -0.34258386725E+02  0.15983022141E+02 -0.72885414514E+02  0.82105893252E+02  0.00000000000E+00 0. -1.
      -12    1    3    3    0    0  0.34258386725E+02 -0.15983022141E+02 -0.29802642263E+02  0.48138254472E+02  0.00000000000E+00 0.  1.
</event>
<event>
 5   0  0.2413800E+01  0.8178312E+02  0.7957747E-01  0.1322841E+00
       -2   -1    0    0    0  501  0.00000000000E+00  0.00000000000E+00  0.60787820994E+01  0.60787820994E+01  0.00000000000E+00 0.  1.
        1   -1    0    0  501    0  0.00000000000E+00  0.00000000000E+00 -0.27507480148E+03  0.27507480148E+03  0.00000000000E+00 0. -1.
      -24    2    1    2    0    0  0.00000000000E+00  0.00000000000E+00 -0.26899601938E+03  0.28115358358E+03  0.81783122446E+02 0.  0.
       11    1    3    3    0    0  0.38756431029E+02  0.12994960215E+02 -0.13074806720E+03  0.13698900326E+03  0.00000000000E+00 0. -1.
      -12    1    3    3    0    0 -0.38756431029E+02 -0.12994960215E+02 -0.13824795218E+03  0.14416458032E+03  0.00000000000E+00 0.  1.
</event>
<event>
 5   0  0.2413800E+01  0.7813534E+02  0.7957747E-01  0.1332656E+00
       -2   -1    0    0    0  501  0.00000000000E+00  0.00000000000E+00  0.10732061082E+02  0.10732061082E+02  0.00000000000E+00 0.  1.
        1   -1    0    0  501    0  0.00000000000E+00  0.00000000000E+00 -0.14221711482E+03  0.14221711482E+03  0.00000000000E+00 0. -1.
      -24    2    1    2    0    0  0.00000000000E+00  0.00000000000E+00 -0.13148505374E+03  0.15294917590E+03  0.78135338052E+02 0.  0.
       11    1    3    3    0    0 -0.33304547580E+02 -0.18652556720E+02 -0.49462136399E+02  0.62478906031E+02  0.00000000000E+00 0. -1.
      -12    1    3    3    0    0  0.33304547580E+02  0.18652556720E+02 -0.82022917336E+02  0.90470269868E+02  0.00000000000E+00 0.  1.
</event>
<event>
 5   0  0.2413800E+01  0.9065714E+02  0.7957747E-01  0.1301205E+00
        1   -1    0    0  501    0  0.00000000000E+00  0.00000000000E+00  0.14704922151E+03  0.14704922151E+03  0.00000000000E+00 0. -1.
       -2   -1    0    0    0  501  0.00000000000E+00  0.00000000000E+00 -0.13972730897E+02  0.13972730897E+02  0.00000000000E+00 0.  1.
      -24    2    1    2    0    0  0.00000000000E+00  0.00000000000E+00  0.13307649061E+03  0.16102195241E+03  0.90657138731E+02 0.  0.
       11    1    3    3    0    0 -0.20782261621E+02  0.10661592507E+02  0.13553729871E+03  0.13753520020E+03  0.00000000000E+00 0. -1.
      -12    1    3    3    0    0  0.20782261621E+02 -0.10661592507E+02 -0.24608080927E+01  0.23486752209E+02  0.00000000000E+00 0.  1.
</event>
<event>
 5   0  0.2413800E+01  0.6992183E+02  0.7957747E-01  0.1357167E+00
       -2   -1    0    0    0  501  0.00000000000E+00  0.00000000000E+00  0.95079900959E+01  0.95079900959E+01  0.00000000000E+00 0.  1.
        1   -1    0    0  501    0  0.00000000000E+00  0.00000000000E+00 -0.12855140638E+03  0.12855140638E+03  0.00000000000E+00 0. -1.
      -24    2    1    2    0    0  0.00000000000E+00  0.00000000000E+00 -0.11904341628E+03  0.13805939648E+03  0.69921827741E+02 0.  0.
       11    1    3    3    0    0 -0.22685896885E+02  0.19443011512E+02 -0.95367389616E+02  0.99938078910E+02  0.00000000000E+00 0. -1.
      -12    1    3    3    0    0  0.22685896885E+02 -0.19443011512E+02 -0.23676026668E+02  0.38121317565E+02  0.00000000000E+00 0.  1.
</event>
<event>
 4   0  0.2413800E+01  0.1195927E+03  0.7957747E-01  0.1246388E+00
       -2   -1    0    0    0  501  0.00000000000E+00  0.00000000000E+00  0.86921630247E+02  0.86921630247E+02  0.00000000000E+00 0.  1.
        1   -1    0    0  501    0  0.00000000000E+00  0.00000000000E+00 -0.41135959100E+02  0.41135959100E+02  0.00000000000E+00 0. -1.
       11    1    1    2    0    0 -0.20753463467E+02 -0.30361559547E+02 -0.27593930039E+02  0.45977772010E+02  0.00000000000E+00 0. -1.
      -12    1    1    2    0    0  0.20753463467E+02  0.30361559547E+02  0.73379601186E+02  0.82079817338E+02  0.00000000000E+00 0.  1.
</event>
<event>
 5   0  0.2413800E+01  0.8041194E+02  0.7957747E-01  0.1326461E+00
        1   -1    0    0  501    0  0.00000000000E+00  0.00000000000E+00  0.34474032603E+02  0.34474032603E+02  0.00000000000E+00 0. -1.
       -2   -1    0    0    0  501  0.00000000000E+00  0.00000000000E+00 -0.46890944948E+02  0.46890944948E+02  0.00000000000E+00 0.  1.
      -24    2    1    2    0    0  0.00000000000E+00  0.00000000000E+00 -0.12416912345E+02  0.81364977551E+02  0.80411938540E+02 0.  0.
       11    1    3    3    0    0 -0.21245026574E+02  0.28410968924E+02  0.12936297788E+02  0.37760854198E+02  0.00000000000E+00 0. -1.
      -12    1    3    3    0    0  0.21245026574E+02 -0.28410968924E+02 -0.25353210133E+02  0.43604123353E+02  0.00000000000E+00 0.  1.
</event>
<event>
 5   0  0.2413800E+01  0.7859965E+02  0.7957747E-01  0.1331373E+00
       -4   -1    0    0    0  501  0.00000000000E+00  0.00000000000E+00  0.93541483666E+01  0.93541483666E+01  0.00000000000E+00 0.  1.
        3   -1    0    0  501    0  0.00000000000E+00  0.00000000000E+00 -0.16511135957E+03  0.16511135957E+03  0.00000000000E+00 0. -1.
      -24    2    1    2    0    0  0.00000000000E+00  0.00000000000E+00 -0.15575721120E+03  0.17446550793E+03  0.78599647694E+02 0.  0.
       11    1    3    3    0    0  0.16159432051E+02  0.24824624749E+02 -0.20548836692E+02  0.36050574580E+02  0.00000000000E+00 0. -1.
      -12    1    3    3    0    0 -0.16159432051E+02 -0.24824624749E+02 -0.13520837451E+03  0.13841493335E+03  0.00000000000E+00 0.  1.
</event>
<event>
 5   0  0.2413800E+01  0.8849018E+02  0.7957747E-01  0.1306223E+00
       -2   -1    0    0    0  501  0.00000000000E+00  0.00000000000E+00  0.86976146437E+02  0.86976146437E+02  0.00000000000E+00 0.  1.
        1   -1    0    0  501    0  0.00000000000E+00  0.00000000000E+00 -0.22507643525E+02  0.22507643525E+02  0.00000000000E+00 0. -1.
      -24    2    1    2    0    0  0.00000000000E+00  0.00000000000E+00  0.64468502912E+02  0.10948378996E+03  0.88490182488E+02 0.  0.
       11    1    3    3    0    0  0.13725884730E+02 -0.10101900796E+02 -0.18283725484E+02  0.24994858049E+02  0.00000000000E+00 0. -1.
      -12    1    3    3    0    0 -0.13725884730E+02  0.10101900796E+02  0.82752228396E+02  0.84488931914E+02  0.00000000000E+00 0.  1.
</event>
<event>
 5   0  0.2413800E+01  0.8833782E+02  0.7957747E-01  0.1306581E+00
        1   -1    0    0  501    0  0.00000000000E+00  0.00000000000E+00  0.23835151838E+02  0.23835151838E+02  0.00000000000E+00 0. -1.
       -2   -1    0    0    0  501  0.00000000000E+00  0.00000000000E+00 -0.81849390328E+02  0.81849390328E+02  0.00000000000E+00 0.  1.
      -24    2    1    2    0    0  0.00000000000E+00  0.00000000000E+00 -0.58014238489E+02  0.10568454217E+03  0.88337820809E+02 0.  0.
       11    1    3    3    0    0 -0.42474752567E+01  0.22993222655E+02  0.15823382513E+02  0.28233114746E+02  0.00000000000E+00 0. -1.
      -12    1    3    3    0    0  0.42474752567E+01 -0.22993222655E+02 -0.73837621002E+02  0.77451427420E+02  0.00000000000E+00 0.  1.
</event>
<event>
 5   0  0.2413800E+01  0.8265878E+02  0.7957747E-01  0.1320571E+00
        1   -1    0    0  501    0  0.00000000000E+00  0.00000000000E+00  0.57479384841E+01  0.57479384841E+01  0.00000000000E+00 0. -1.
       -2   -1    0    0    0  501  0.00000000000E+00  0.00000000000E+00 -0.29717062784E+03  0.29717062784E+03  0.00000000000E+00 0.  1.
      -24    2    1    2    0    0  0.00000000000E+00  0.00000000000E+00 -0.29142268936E+03  0.30291856632E+03  0.82658780250E+02 0.  0.
       11    1    3    3    0    0  0.61466240941E+01  0.11817192491E+02 -0.23339349109E+01  0.13523101652E+02  0.00000000000E+00 0. -1.
      -12    1    3    3    0    0 -0.61466240941E+01 -0.11817192491E+02 -0.28908875444E+03  0.28939546467E+03  0.00000000000E+00 0.  1.
</event>
<event>
 5   0  0.2413800E+01  0.8061419E+02  0.7957747E-01  0.1325922E+00
       -2   -1    0    0    0  501  0.00000000000E+00  0.00000000000E+00  0.27632046173E+03  0.27632046173E+03  0.00000000000E+00 0.  1.
        1   -1    0    0  501    0  0.00000000000E+00  0.00000000000E+00 -0.58796298105E+01  0.58796298105E+01  0.00000000000E+00 0. -1.
      -24    2    1    2    0    0  0.00000000000E+00  0.00000000000E+00  0.27044083192E+03  0.28220009155E+03  0.80614192896E+02 0.  0.
       11    1    3    3    0    0  0.20017436968E+02 -0.31693257527E+01  0.13253903781E+02  0.24215870291E+02  0.00000000000E+00 0. -1.
      -12    1    3    3    0    0 -0.20017436968E+02  0.31693257527E+01  0.25718692814E+03  0.25798422125E+03  0.00000000000E+00 0.  1.
</event>
<event>
 5   0  0.2413800E+01  0.8525960E+02  0.7957747E-01  0.1314012E+00
        1   -1    0    0  501    0  0.00000000000E+00  0.00000000000E+00  0.16204627405E+03  0.16204627405E+03  0.00000000000E+00 0. -1.
       -2   -1    0    0    0  501  0.00000000000E+00  0.00000000000E+00 -0.11214698189E+02  0.11214698189E+02  0.00000000000E+00 0.  1.
      -24    2    1    2    0    0  0.00000000000E+00  0.00000000000E+00  0.15083157586E+03  0.17326097224E+03  0.85259604882E+02 0.  0.
       11    1    3    3    0    0 -0.23737537993E+02 -0.26276549036E+02  0.27181576497E+02  0.44640405913E+02  0.00000000000E+00 0. -1.
      -12    1    3    3    0    0  0.23737537993E+02  0.26276549036E+02  0.12364999937E+03  0.12862056633E+03  0.00000000000E+00 0.  1.
</event>
<event>
 5   0  0.2413800E+01  0.8043088E+02  0.7957747E-01  0.1326411E+00
       -2   -1    0    0    0  501  0.00000000000E+00  0.00000000000E+00  0.45855759406E+01  0.45855759406E+01  0.00000000000E+00 0.  1.
        1   -1    0    0  501    0  0.00000000000E+00  0.00000000000E+00 -0.35268887209E+03  0.35268887209E+03  0.00000000000E+00 0. -1.
      -24    2    1    2    0    0  0.00000000000E+00  0.00000000000E+00 -0.34810329615E+03  0.35727444803E+03  0.80430879801E+02 0.  0.
       11    1    3    3    0    0  0.25874439218E+02  0.29088110487E+02 -0.12926071227E+03  0.13499606110E+03  0.00000000000E+00 0. -1.
      -12    1    3    3    0    0 -0.25874439218E+02 -0.29088110487E+02 -0.21884258388E+03  0.22227838693E+03  0.00000000000E+00 0.  1.
</event>
<event>
 5   0  0.2413800E+01  0.7984076E+02  0.7957747E-01  0.1327993E+00
       -2   -1    0    0    0  501  0.00000000000E+00  0.00000000000E+00  0.29482512359E+02  0.29482512359E+02  0.00000000000E+00 0.  1.
        1   -1    0    0  501    0  0.00000000000E+00  0.00000000000E+00 -0.54053627297E+02  0.54053627297E+02  0.00000000000E+00 0. -1.
      -24    2    1    2    0    0  0.00000000000E+00  0.00000000000E+00 -0.24571114938E+02  0.83536139656E+02  0.79840759887E+02 0.  0.
       11    1    3    3    0    0 -0.20933613646E+02  0.19173642337E+02 -0.41652282831E+02  0.50405926296E+02  0.00000000000E+00 0. -1.
      -12    1    3    3    0    0  0.20933613646E+02 -0.19173642337E+02  0.17081167892E+02  0.33130213360E+02  0.00000000000E+00 0.  1.
</event>
<event>
 5   0  0.2413800E+01  0.8143375E+02  0.7957747E-01  0.1323756E+00
        1   -1    0    0  501    0  0.00000000000E+00  0.00000000000E+00  0.12649992485E+02  0.12649992485E+02  0.00000000000E+00 0. -1.
       -2   -1    0    0    0  501  0.00000000000E+00  0.00000000000E+00 -0.13105652931E+03  0.13105652931E+03  0.00000000000E+00 0.  1.
      -24    2    1    2    0    0  0.00000000000E+00  0.00000000000E+00 -0.11840653683E+03  0.14370652180E+03  0.81433754941E+02 0.  0.
       11    1    3    3    0    0  0.19256430606E+02 -0.35875153464E+02 -0.58911396504E+02  0.71612773957E+02  0.00000000000E+00 0. -1.
      -12    1    3    3    0    0 -0.19256430606E+02  0.35875153464E+02 -0.59495140322E+02  0.72093747840E+02  0.00000000000E+00 0.  1.
</event>
<event>
 5   0  0.2413800E+01  0.8070909E+02  0.7957747E-01  0.1325670E+00
        1   -1    0    0  501    0  0.00000000000E+00  0.00000000000E+00  0.94514055273E+02  0.94514055273E+02  0.00000000000E+00 0. -1.
       -2   -1    0    0    0  501  0.00000000000E+00  0.00000000000E+00 -0.17230126710E+02  0.17230126710E+02  0.00000000000E+00 0.  1.
      -24    2    1    2    0    0  0.00000000000E+00  0.00000000000E+00  0.77283928563E+02  0.11174418198E+03  0.80709086186E+02 0.  0.
       11    1    3    3    0    0 -0.76720577703E+01  0.27955940918E+02  0.77509903375E+02  0.82753732389E+02  0.00000000000E+00 0. -1.
      -12    1    3    3    0    0  0.76720577703E+01 -0.27955940918E+02 -0.22597481247E+00  0.28990449594E+02  0.00000000000E+00 0.  1.
</event>
<event>
 5   0  0.2413800E+01  0.8115498E+02  0.7957747E-01  0.1324489E+00
        1   -1    0    0  501    0  0.00000000000E+00  0.00000000000E+00  0.11051845980E+03  0.11051845980E+03  0.00000000000E+00 0. -1.
       -2   -1    0    0    0  501  0.00000000000E+00  0.00000000000E+00 -0.14898258151E+02  0.14898258151E+02  0.00000000000E+00 0.  1.
      -24    2    1    2    0    0  0.00000000000E+00  0.00000000000E+00  0.95620201648E+02  0.12541671795E+03  0.81154976300E+02 0.  0.
       11    1    3    3    0    0  0.35013944051E+02  0.19995942238E+02  0.54844387540E+02  0.68071439155E+02  0.00000000000E+00 0. -1.
      -12    1    3    3    0    0 -0.35013944051E+02 -0.19995942238E+02  0.40775814108E+02  0.57345278796E+02  0.00000000000E+00 0.  1.
</event>
<event>
 5   0  0.2413800E+01  0.7445033E+02  0.7957747E-01  0.1343208E+00
       -2   -1    0    0    0  501  0.00000000000E+00  0.00000000000E+00  0.82069340983E+02  0.82069340983E+02  0.00000000000E+00 0.  1.
        1   -1    0    0  501    0  0.00000000000E+00  0.00000000000E+00 -0.16884659681E+02  0.16884659681E+02  0.00000000000E+00 0. -1.
      -24    2    1    2    0    0  0.00000000000E+00  0.00000000000E+00  0.65184681303E+02  0.98954000664E+02  0.74450329555E+02 0.  0.
       11    1    3    3    0    0 -0.30589643673E+02 -0.17462801154E+02  0.48599209594E+02  0.60021320356E+02  0.00000000000E+00 0. -1.
      -12    1    3    3    0    0  0.30589643673E+02  0.17462801154E+02  0.16585471708E+02  0.38932680308E+02  0.00000000000E+00 0.  1.
</event>
<event>
 5   0  0.2413800E+01  0.8041696E+02  0.7957747E-01  0.1326448E+00
       -2   -1    0    0    0  501  0.00000000000E+00  0.00000000000E+00  0.30012491519E+03  0.30012491519E+03  0.00000000000E+00 0.  1.
        1   -1    0    0  501    0  0.00000000000E+00  0.00000000000E+00 -0.53868304874E+01  0.53868304874E+01  0.00000000000E+00 0. -1.
      -24    2    1    2    0    0  0.00000000000E+00  0.00000000000E+00  0.29473808470E+03  0.30551174568E+03  0.80416964459E+02 0.  0.
       11    1    3    3    0    0  0.34493325019E+02  0.16809185012E+02  0.10171916892E+03  0.10871581071E+03  0.00000000000E+00 0. -1.
      -12    1    3    3    0    0 -0.34493325019E+02 -0.16809185012E+02  0.19301891578E+03  0.19679593497E+03  0.00000000000E+00 0.  1.
</event>
<event>
 5   0  0.2413800E+01  0.8828902E+02  0.7957747E-01  0.1306697E+00
       -2   -1    0    0    0  501  0.00000000000E+00  0.00000000000E+00  0.61659329642E+02  0.61659329642E+02  0.00000000000E+00 0.  1.
        1   -1    0    0  501    0  0.00000000000E+00  0.00000000000E+00 -0.31604911895E+02  0.31604911895E+02  0.00000000000E+00 0. -1.
      -24    2    1    2    0    0  0.00000000000E+00  0.00000000000E+00  0.30054417747E+02  0.93264241538E+02  0.88289018136E+02 0.  0.
       11    1    3    3    0    0 -0.13784732879E+02  0.31985194385E+02 -0.13624390207E+02  0.37399138077E+02  0.00000000000E+00 0. -1.
      -12    1    3    3    0    0  0.13784732879E+02 -0.31985194385E+02  0.43678807954E+02  0.55865103461E+02  0.00000000000E+00 0.  1.
</event>
<event>
 5   0  0.2413800E+01  0.8039569E+02  0.7957747E-01  0.1326505E+00
        3   -1    0    0  501    0  0.00000000000E+00  0.00000000000E+00  0.36881423657E+02  0.36881423657E+02  0.00000000000E+00 0. -1.
       -4   -1    0    0    0  501  0.00000000000E+00  0.00000000000E+00 -0.43812486659E+02  0.43812486659E+02  0.00000000000E+00 0.  1.
      -24    2    1    2    0    0  0.00000000000E+00  0.00000000000E+00 -0.69310630029E+01  0.80693910316E+02  0.80395693465E+02 0.  0.
       11    1    3    3    0    0 -0.36680385447E+02  0.22752788804E+01  0.12881049150E+02  0.38942894059E+02  0.00000000000E+00 0. -1.
      -12    1    3    3    0    0  0.36680385447E+02 -0.22752788804E+01 -0.19812112153E+02  0.41751016257E+02  0.00000000000E+00 0.  1.
</event>
<event>
 5   0  0.2413800E+01  0.7938598E+02  0.7957747E-01  0.1329224E+00
        3   -1    0    0  501    0  0.00000000000E+00  0.00000000000E+00  0.92522869074E+02  0.92522869074E+02  0.00000000000E+00 0. -1.
       -4   -1    0    0    0  501  0.00000000000E+00  0.00000000000E+00 -0.17028585982E+02  0.17028585982E+02  0.00000000000E+00 0.  1.
      -24    2    1    2    0    0  0.00000000000E+00  0.00000000000E+00  0.75494283092E+02  0.10955145506E+03  0.79385984439E+02 0.  0.
       11    1    3    3    0    0 -0.33802952104E+02 -0.48206665790E+00  0.66451545138E+02  0.74556554443E+02  0.00000000000E+00 0. -1.
      -12    1    3    3    0    0  0.33802952104E+02  0.48206665790E+00  0.90427379542E+01  0.34994900613E+02  0.00000000000E+00 0.  1.
</event>
<event>
 5   0  0.2413800E+01  0.7999872E+02  0.7957747E-01  0.1327568E+00
       -2   -1    0    0    0  501  0.00000000000E+00  0.00000000000E+00  0.12024475055E+02  0.12024475055E+02  0.00000000000E+00 0.  1.
        1   -1    0    0  501    0  0.00000000000E+00  0.00000000000E+00 -0.13305769125E+03  0.13305769125E+03  0.00000000000E+00 0. -1.
      -24    2    1    2    0    0  0.00000000000E+00  0.00000000000E+00 -0.12103321619E+03  0.14508216630E+03  0.79998722222E+02 0.  0.
       11    1    3    3    0    0  0.38233677215E+02 -0.10431541157E+02 -0.70336267200E+02  0.80733026748E+02  0.00000000000E+00 0. -1.
      -12    1    3    3    0    0 -0.38233677215E+02  0.10431541157E+02 -0.50696948990E+02  0.64349139553E+02  0.00000000000E+00 0.  1.
</event>
<event>
 5   0  0.2413800E+01  0.7914345E+02  0.7957747E-01  0.1329884E+00
       -4   -1    0    0    0  501  0.00000000000E+00  0.00000000000E+00  0.15095356513E+02  0.15095356513E+02  0.00000000000E+00 0.  1.
        3   -1    0    0  501    0  0.00000000000E+00  0.00000000000E+00 -0.10373529665E+03  0.10373529665E+03  0.00000000000E+00 0. -1.
      -24    2    1    2    0    0  0.00000000000E+00  0.00000000000E+00 -0.88639940139E+02  0.11883065316E+03  0.79143446625E+02 0.  0.
       11    1    3    3    0    0 -0.28601551158E+02  0.61963945018E+00 -0.85370220681E+02  0.90036144191E+02  0.00000000000E+00 0. -1.
      -12    1    3    3    0    0  0.28601551158E+02 -0.61963945018E+00 -0.32697194589E+01  0.28794508974E+02  0.00000000000E+00 0.  1.
</event>
<event>
 5   0  0.2413800E+01  0.8101532E+02  0.7957747E-01  0.1324858E+00
       -2   -1    0    0    0  501  0.00000000000E+00  0.00000000000E+00  0.12072778003E+02  0.12072778003E+02  0.00000000000E+00 0.  1.
        1   -1    0    0  501    0  0.00000000000E+00  0.00000000000E+00 -0.13591489690E+03  0.13591489690E+03  0.00000000000E+00 0. -1.
      -24    2    1    2    0    0  0.00000000000E+00  0.00000000000E+00 -0.12384211890E+03  0.14798767491E+03  0.81015316518E+02 0.  0.
       11    1    3    3    0    0 -0.19464355171E+02  0.24961415109E+02 -0.10809398969E+03  0.11263322766E+03  0.00000000000E+00 0. -1.
      -12    1    3    3    0    0  0.19464355171E+02 -0.24961415109E+02 -0.15748129214E+02  0.35354447248E+02  0.00000000000E+00 0.  1.
</event>
<event>
 5   0  0.2413800E+01  0.7998874E+02  0.7957747E-01  0.1327595E+00
       -2   -1    0    0    0  501  0.00000000000E+00  0.00000000000E+00  0.25819942352E+03  0.25819942352E+03  0.00000000000E+00 0.  1.
        1   -1    0    0  501    0  0.00000000000E+00  0.00000000000E+00 -0.61950160860E+01  0.61950160860E+01  0.00000000000E+00 0. -1.
      -24    2    1    2    0    0  0.00000000000E+00  0.00000000000E+00  0.25200440744E+03  0.26439443961E+03  0.79988738760E+02 0.  0.
       11    1    3    3    0    0 -0.36929585260E+02  0.15345028486E+02  0.12423631980E+03  0.13051408860E+03  0.00000000000E+00 0. -1.
      -12    1    3    3    0    0  0.36929585260E+02 -0.15345028486E+02  0.12776808764E+03  0.13388035101E+03  0.00000000000E+00 0.  1.
</event>
<event>
 5   0  0.2413800E+01  0.7917534E+02  0.7957747E-01  0.1329797E+00
        1   -1    0    0  501    0  0.00000000000E+00  0.00000000000E+00  0.29027867379E+02  0.29027867379E+02  0.00000000000E+00 0. -1.
       -2   -1    0    0    0  501  0.00000000000E+00  0.00000000000E+00 -0.53988939084E+02  0.53988939084E+02  0.00000000000E+00 0.  1.
      -24    2    1    2    0    0  0.00000000000E+00  0.00000000000E+00 -0.24961071705E+02  0.83016806463E+02  0.79175343730E+02 0.  0.
       11    1    3    3    0    0 -0.20491871642E+02  0.30432193640E+02  0.31120489194E+01  0.36820104041E+02  0.00000000000E+00 0. -1.
      -12    1    3    3    0    0  0.20491871642E+02 -0.30432193640E+02 -0.28073120624E+02  0.46196702422E+02  0.00000000000E+00 0.  1.
</event>
<event>
 5   0  0.2413800E+01  0.5411989E+02  0.7957747E-01  0.1417292E+00
        1   -1    0    0  501    0  0.00000000000E+00  0.00000000000E+00  0.70857041902E+01  0.70857041902E+01  0.00000000000E+00 0. -1.
       -2   -1    0    0    0  501  0.00000000000E+00  0.00000000000E+00 -0.10334054734E+03  0.10334054734E+03  0.00000000000E+00 0.  1.
      -24    2    1    2    0    0  0.00000000000E+00  0.00000000000E+00 -0.96254843152E+02  0.11042625153E+03  0.54119887262E+02 0.  0.
       11    1    3    3    0    0 -0.13260849118E+02 -0.78488967252E+01 -0.27412219333E+01  0.15651504619E+02  0.00000000000E+00 0. -1.
      -12    1    3    3    0    0  0.13260849118E+02  0.78488967252E+01 -0.93513621219E+02  0.94774746914E+02  0.00000000000E+00 0.  1.
</event>
<event>
 5   0  0.2413800E+01  0.8128579E+02  0.7957747E-01  0.1324145E+00
       -2   -1    0    0    0  501  0.00000000000E+00  0.00000000000E+00  0.22948953683E+01  0.22948953683E+01  0.00000000000E+00 0.  1.
        1   -1    0    0  501    0  0.00000000000E+00  0.00000000000E+00 -0.71979095193E+03  0.71979095193E+03  0.00000000000E+00 0. -1.
      -24    2    1    2    0    0  0.00000000000E+00  0.00000000000E+00 -0.71749605657E+03  0.72208584730E+03  0.81285790191E+02 0.  0.
       11    1    3    3    0    0 -0.62918483691E+01  0.25947236608E+02 -0.86536417584E+02  0.90561570281E+02  0.00000000000E+00 0. -1.
      -12    1    3    3    0    0  0.62918483691E+01 -0.25947236608E+02 -0.63095963898E+03  0.63152427702E+03  0.00000000000E+00 0.  1.
</event>
<event>
 5   0  0.2413800E+01  0.8595379E+02  0.7957747E-01  0.1312305E+00
        1   -1    0    0  501    0  0.00000000000E+00  0.00000000000E+00  0.12471293745E+03  0.12471293745E+03  0.00000000000E+00 0. -1.
       -2   -1    0    0    0  501  0.00000000000E+00  0.00000000000E+00 -0.14810118031E+02  0.14810118031E+02  0.00000000000E+00 0.  1.
      -24    2    1    2    0    0  0.00000000000E+00  0.00000000000E+00  0.10990281942E+03  0.13952305548E+03  0.85953785807E+02 0.  0.
       11    1    3    3    0    0 -0.34000434770E+02  0.11811251947E+02  0.93070725670E+02  0.99788251883E+02  0.00000000000E+00 0. -1.
      -12    1    3    3    0    0  0.34000434770E+02 -0.11811251947E+02  0.16832093752E+02  0.39734803601E+02  0.00000000000E+00 0.  1.
</event>
<event>
 5   0  0.2413800E+01  0.7992612E+02  0.7957747E-01  0.1327764E+00
       -2   -1    0    0    0  501  0.00000000000E+00  0.00000000000E+00  0.75412128119E+02  0.75412128119E+02  0.00000000000E+00 0.  1.
        1   -1    0    0  501    0  0.00000000000E+00  0.00000000000E+00 -0.21177578654E+02  0.21177578654E+02  0.00000000000E+00 0. -1.
      -24    2    1    2    0    0  0.00000000000E+00  0.00000000000E+00  0.54234549465E+02  0.96589706772E+02  0.79926122755E+02 0.  0.
       11    1    3    3    0    0  0.29711395940E+02  0.26701905789E+02  0.28488496920E+02  0.49064786540E+02  0.00000000000E+00 0. -1.
      -12    1    3    3    0    0 -0.29711395940E+02 -0.26701905789E+02  0.25746052545E+02  0.47524920232E+02  0.00000000000E+00 0.  1.
</event>
<event>
 5   0  0.2413800E+01  0.8019954E+02  0.7957747E-01  0.1327029E+00
       -2   -1    0    0    0  501  0.00000000000E+00  0.00000000000E+00  0.21005964629E+02  0.21005964629E+02  0.00000000000E+00 0.  1.
        1   -1    0    0  501    0  0.00000000000E+00  0.00000000000E+00 -0.76549287933E+02  0.76549287933E+02  0.00000000000E+00 0. -1.
      -24    2    1    2    0    0  0.00000000000E+00  0.00000000000E+00 -0.55543323304E+02  0.97555252563E+02  0.80199542012E+02 0.  0.
       11    1    3    3    0    0 -0.16825094674E+02  0.36367609953E+02 -0.29618345660E+02  0.49829040369E+02  0.00000000000E+00 0. -1.
      -12    1    3    3    0    0  0.16825094674E+02 -0.36367609953E+02 -0.25924977644E+02  0.47726212194E+02  0.00000000000E+00 0.  1.
</event>
<event>
 5   0  0.2413800E+01  0.7765213E+02  0.7957747E-01  0.1334002E+00
        1   -1    0    0  501    0  0.00000000000E+00  0.00000000000E+00  0.60770035382E+02  0.60770035382E+02  0.00000000000E+00 0. -1.
       -2   -1    0    0    0  501  0.00000000000E+00  0.00000000000E+00 -0.24806029817E+02  0.24806029817E+02  0.00000000000E+00 0.  1.
      -24    2    1    2    0    0  0.00000000000E+00  0.00000000000E+00  0.35964005565E+02  0.85576065200E+02  0.77652129647E+02 0.  0.
       11    1    3    3    0    0  0.37592953701E+02  0.67068811059E+01  0.25716034940E+02  0.46038319639E+02  0.00000000000E+00 0. -1.
      -12    1    3    3    0    0 -0.37592953701E+02 -0.67068811059E+01  0.10247970625E+02  0.39537745561E+02  0.00000000000E+00 0.  1.
</event>
<event>
 5   0  0.2413800E+01  0.8049873E+02  0.7957747E-01  0.1326230E+00
       -2   -1    0    0    0  501  0.00000000000E+00  0.00000000000E+00  0.14146342584E+03  0.14146342584E+03  0.00000000000E+00 0.  1.
        1   -1    0    0  501    0  0.00000000000E+00  0.00000000000E+00 -0.11451803941E+02  0.11451803941E+02  0.00000000000E+00 0. -1.
      -24    2    1    2    0    0  0.00000000000E+00  0.00000000000E+00  0.13001162190E+03  0.15291522978E+03  0.80498730860E+02 0.  0.
       11    1    3    3    0    0 -0.17514135877E+02 -0.84160513958E+01 -0.19516252565E+01  0.19529048050E+02  0.00000000000E+00 0. -1.
      -12    1    3    3    0    0  0.17514135877E+02  0.84160513958E+01  0.13196324716E+03  0.13338618173E+03  0.00000000000E+00 0.  1.
</event>
<event>
 5   0  0.2413800E+01  0.8194314E+02  0.7957747E-01  0.1322424E+00
       -2   -1    0    0    0  501  0.00000000000E+00  0.00000000000E+00  0.34431143429E+03  0.34431143429E+03  0.00000000000E+00 0.  1.
        1   -1    0    0  501    0  0.00000000000E+00  0.00000000000E+00 -0.48754399327E+01  0.48754399327E+01  0.00000000000E+00 0. -1.
      -24    2    1    2    0    0  0.00000000000E+00  0.00000000000E+00  0.33943599436E+03  0.34918687423E+03  0.81943144095E+02 0.  0.
       11    1    3    3    0    0  0.11939187465E+02 -0.18997724826E+02  0.23633748903E+02  0.32588523027E+02  0.00000000000E+00 0. -1.
      -12    1    3    3    0    0 -0.11939187465E+02  0.18997724826E+02  0.31580224546E+03  0.31659835120E+03  0.00000000000E+00 0.  1.
</event>
<event>
 5   0  0.2413800E+01  0.8060327E+02  0.7957747E-01  0.1325951E+00
       -4   -1    0    0    0  501  0.00000000000E+00  0.00000000000E+00  0.84329141937E+03  0.84329141937E+03  0.00000000000E+00 0.  1.
        3   -1    0    0  501    0  0.00000000000E+00  0.00000000000E+00 -0.19260504614E+01  0.19260504614E+01  0.00000000000E+00 0. -1.
      -24    2    1    2    0    0  0.00000000000E+00  0.00000000000E+00  0.84136536891E+03  0.84521746983E+03  0.80603271085E+02 0.  0.
       11    1    3    3    0    0  0.11040785326E+02  0.15161744938E+02  0.46627910861E+02  0.50258725824E+02  0.00000000000E+00 0. -1.
      -12    1    3    3    0    0 -0.11040785326E+02 -0.15161744938E+02  0.79473745805E+03  0.79495874401E+03  0.00000000000E+00 0.  1.
</event>
<event>
 4   0  0.2413800E+01  0.1113806E+03  0.7957747E-01  0.1260020E+00
       -4   -1    0    0    0  501  0.00000000000E+00  0.00000000000E+00  0.20094108330E+02  0.20094108330E+02  0.00000000000E+00 0.  1.
        3   -1    0    0  501    0  0.00000000000E+00  0.00000000000E+00 -0.15434409236E+03  0.15434409236E+03  0.00000000000E+00 0. -1.
       11    1    1    2    0    0 -0.21408248395E+02  0.39707296479E+02 -0.11826929543E+03  0.12658044373E+03  0.00000000000E+00 0. -1.
      -12    1    1    2    0    0  0.21408248395E+02 -0.39707296479E+02 -0.15980688596E+02  0.47857756958E+02  0.00000000000E+00 0.  1.
</event>
<event>
 5   0  0.2413800E+01  0.8106629E+02  0.7957747E-01  0.1324724E+00
       -2   -1    0    0    0  501  0.00000000000E+00  0.00000000000E+00  0.10793311483E+02  0.10793311483E+02  0.00000000000E+00 0.  1.
        1   -1    0    0  501    0  0.00000000000E+00  0.00000000000E+00 -0.15221796580E+03  0.15221796580E+03  0.00000000000E+00 0. -1.
      -24    2    1    2    0    0  0.00000000000E+00  0.00000000000E+00 -0.14142465431E+03  0.16301127728E+03  0.81066291840E+02 0.  0.
       11    1    3    3    0    0 -0.65073799222E+01  0.25882375707E+02 -0.13205750952E+03  0.13472723996E+03  0.00000000000E+00 0. -1.
      -12    1    3    3    0    0  0.65073799222E+01 -0.25882375707E+02 -0.93671447920E+01  0.28284037322E+02  0.00000000000E+00 0.  1.
</event>
<event>
 5   0  0.2413800E+01  0.8139587E+02  0.7957747E-01  0.1323855E+00
       -2   -1    0    0    0  501  0.00000000000E+00  0.00000000000E+00  0.51395945919E+02  0.51395945919E+02  0.00000000000E+00 0.  1.
        1   -1    0    0  501    0  0.00000000000E+00  0.00000000000E+00 -0.32226702776E+02  0.32226702776E+02  0.00000000000E+00 0. -1.
      -24    2    1    2    0    0  0.00000000000E+00  0.00000000000E+00  0.19169243144E+02  0.83622648695E+02  0.81395869011E+02 0.  0.
       11    1    3    3    0    0 -0.31978654131E+01 -0.23245941869E+02 -0.24577471760E+02  0.33980174730E+02  0.00000000000E+00 0. -1.
      -12    1    3    3    0    0  0.31978654131E+01  0.23245941869E+02  0.43746714903E+02  0.49642473965E+02  0.00000000000E+00 0.  1.
</event>
<event>
 5   0  0.2413800E+01  0.8146406E+02  0.7957747E-01  0.1323676E+00
       -2   -1    0    0    0  501  0.00000000000E+00  0.00000000000E+00  0.60569879457E+02  0.60569879457E+02  0.00000000000E+00 0.  1.
        1   -1    0    0  501    0  0.00000000000E+00  0.00000000000E+00 -0.27391473520E+02  0.27391473520E+02  0.00000000000E+00 0. -1.
      -24    2    1    2    0    0  0.00000000000E+00  0.00000000000E+00  0.33178405937E+02  0.87961352977E+02  0.81464059542E+02 0.  0.
       11    1    3    3    0    0 -0.25163366427E+02 -0.23336841032E+02 -0.70989701459E+01  0.35045663589E+02  0.00000000000E+00 0. -1.
      -12    1    3    3    0    0  0.25163366427E+02  0.23336841032E+02  0.40277376082E+02  0.52915689388E+02  0.00000000000E+00 0.  1.
</event>
<event>
 5   0  0.2413800E+01  0.7903968E+02  0.7957747E-01  0.1330167E+00
        3   -1    0    0  501    0  0.00000000000E+00  0.00000000000E+00  0.37938666860E+02  0.37938666860E+02  0.00000000000E+00 0. -1.
       -4   -1    0    0    0  501  0.00000000000E+00  0.00000000000E+00 -0.41166906624E+02  0.41166906624E+02  0.00000000000E+00 0.  1.
      -24    2    1    2    0    0  0.00000000000E+00  0.00000000000E+00 -0.32282397639E+01  0.79105573485E+02  0.79039675002E+02 0.  0.
       11    1    3    3    0    0 -0.25683023624E+02  0.29369815629E+02  0.46850757971E+01  0.39295721240E+02  0.00000000000E+00 0. -1.
      -12    1    3    3    0    0  0.25683023624E+02 -0.29369815629E+02 -0.79133155610E+01  0.39809852245E+02  0.00000000000E+00 0.  1.
</event>
<event>
 5   0  0.2413800E+01  0.8022708E+02  0.7957747E-01  0.1326956E+00
       -4   -1    0    0    0  501  0.00000000000E+00  0.00000000000E+00  0.43419005288E+01  0.43419005288E+01  0.00000000000E+00 0.  1.
        3   -1    0    0  501    0  0.00000000000E+00  0.00000000000E+00 -0.37059718321E+03  0.37059718321E+03  0.00000000000E+00 0. -1.
      -24    2    1    2    0    0  0.00000000000E+00  0.00000000000E+00 -0.36625528269E+03  0.37493908374E+03  0.80227080360E+02 0.  0.
       11    1    3    3    0    0 -0.32529343875E+02  0.23370881518E+02 -0.17295299624E+03  0.17753054730E+03  0.00000000000E+00 0. -1.
      -12    1    3    3    0    0  0.32529343875E+02 -0.23370881518E+02 -0.19330228644E+03  0.19740853644E+03  0.00000000000E+00 0.  1.
</event>
<event>
 5   0  0.2413800E+01  0.8199736E+02  0.7957747E-01  0.1322283E+00
       -2   -1    0    0    0  501  0.00000000000E+00  0.00000000000E+00  0.42420851019E+02  0.42420851019E+02  0.00000000000E+00 0.  1.
        1   -1    0    0  501    0  0.00000000000E+00  0.00000000000E+00 -0.39624186748E+02  0.39624186748E+02  0.00000000000E+00 0. -1.
      -24    2    1    2    0    0  0.00000000000E+00  0.00000000000E+00  0.27966642710E+01  0.82045037767E+02  0.81997359050E+02 0.  0.
       11    1    3    3    0    0  0.27025707861E+02 -0.13283018719E+02 -0.26439855623E+02  0.40073600250E+02  0.00000000000E+00 0. -1.
      -12    1    3    3    0    0 -0.27025707861E+02  0.13283018719E+02  0.29236519894E+02  0.41971437516E+02  0.00000000000E+00 0.  1.
</event>
<event>
 5   0  0.2413800E+01  0.7557842E+02  0.7957747E-01  0.1339905E+00
       -4   -1    0    0    0  501  0.00000000000E+00  0.00000000000E+00  0.10436236710E+03  0.10436236710E+03  0.00000000000E+00 0.  1.
        3   -1    0    0  501    0  0.00000000000E+00  0.00000000000E+00 -0.13683326279E+02  0.13683326279E+02  0.00000000000E+00 0. -1.
      -24    2    1    2    0    0  0.00000000000E+00  0.00000000000E+00  0.90679040824E+02  0.11804569338E+03  0.75578418092E+02 0.  0.
       11    1    3    3    0    0  0.32667469149E+01  0.16681116971E+02 -0.73752046198E+01  0.18529029710E+02  0.00000000000E+00 0. -1.
      -12    1    3    3    0    0 -0.32667469149E+01 -0.16681116971E+02  0.98054245444E+02  0.99516663672E+02  0.00000000000E+00 0.  1.
</event>
<event>
 5   0  0.2413800E+01  0.7986405E+02  0.7957747E-01  0.1327931E+00
       -2   -1    0    0    0  501  0.00000000000E+00  0.00000000000E+00  0.34679337246E+02  0.34679337246E+02  0.00000000000E+00 0.  1.
        1   -1    0    0  501    0  0.00000000000E+00  0.00000000000E+00 -0.45980305914E+02  0.45980305914E+02  0.00000000000E+00 0. -1.
      -24    2    1    2    0    0  0.00000000000E+00  0.00000000000E+00 -0.11300968668E+02  0.80659643160E+02  0.79864047868E+02 0.  0.
       11    1    3    3    0    0  0.65692349939E+01  0.27424743688E+02 -0.34203932297E+02  0.44330355281E+02  0.00000000000E+00 0. -1.
      -12    1    3    3    0    0 -0.65692349939E+01 -0.27424743688E+02  0.22902963630E+02  0.36329287879E+02  0.00000000000E+00 0.  1.
</event>
<event>
 5   0  0.2413800E+01  0.7947222E+02  0.7957747E-01  0.1328990E+00
       -2   -1    0    0    0  501  0.00000000000E+00  0.00000000000E+00  0.61812608426E+01  0.61812608426E+01  0.00000000000E+00 0.  1.
        1   -1    0    0  501    0  0.00000000000E+00  0.00000000000E+00 -0.25544275376E+03  0.25544275376E+03  0.00000000000E+00 0. -1.
      -24    2    1    2    0    0  0.00000000000E+00  0.00000000000E+00 -0.24926149292E+03  0.26162401460E+03  0.79472216311E+02 0.  0.
       11    1    3    3    0    0 -0.34212986927E+02 -0.18669545545E+02 -0.15010465061E+03  0.15508219286E+03  0.00000000000E+00 0. -1.
      -12    1    3    3    0    0  0.34212986927E+02  0.18669545545E+02 -0.99156842301E+02  0.10654182174E+03  0.00000000000E+00 0.  1.
</event>
<event>
 5   0  0.2413800E+01  0.8159793E+02  0.7957747E-01  0.1323325E+00
        1   -1    0    0  501    0  0.00000000000E+00  0.00000000000E+00  0.98579267936E+02  0.98579267936E+02  0.00000000000E+00 0. -1.
       -2   -1    0    0    0  501  0.00000000000E+00  0.00000000000E+00 -0.16885451350E+02  0.16885451350E+02  0.00000000000E+00 0.  1.
      -24    2    1    2    0    0  0.00000000000E+00  0.00000000000E+00  0.81693816586E+02  0.11546471929E+03  0.81597927250E+02 0.  0.
       11    1    3    3    0    0 -0.20138949029E+02  0.49613989935E+00  0.91050734261E+02  0.93252665550E+02  0.00000000000E+00 0. -1.
      -12    1    3    3    0    0  0.20138949029E+02 -0.49613989935E+00 -0.93569176747E+01  0.22212053736E+02  0.00000000000E+00 0.  1.
</event>
<event>
 5   0  0.2413800E+01  0.7980431E+02  0.7957747E-01  0.1328092E+00
        3   -1    0    0  501    0  0.00000000000E+00  0.00000000000E+00  0.12415627295E+02  0.12415627295E+02  0.00000000000E+00 0. -1.
       -4   -1    0    0    0  501  0.00000000000E+00  0.00000000000E+00 -0.12824014369E+03  0.12824014369E+03  0.00000000000E+00 0.  1.
      -24    2    1    2    0    0  0.00000000000E+00  0.00000000000E+00 -0.11582451639E+03  0.14065577098E+03  0.79804306356E+02 0.  0.
       11    1    3    3    0    0 -0.21513334727E+02 -0.58434766628E+01  0.41617796101E+00  0.22296703673E+02  0.00000000000E+00 0. -1.
      -12    1    3    3    0    0  0.21513334727E+02  0.58434766628E+01 -0.11624069435E+03  0.11835906731E+03  0.00000000000E+00 0.  1.
</event>
<event>
 5   0  0.2413800E+01  0.7953878E+02  0.7957747E-01  0.1328809E+00
       -4   -1    0    0    0  501  0.00000000000E+00  0.00000000000E+00  0.34949961874E+02  0.34949961874E+02  0.00000000000E+00 0.  1.
        3   -1    0    0  501    0  0.00000000000E+00  0.00000000000E+00 -0.45253398184E+02  0.45253398184E+02  0.00000000000E+00 0. -1.
      -24    2    1    2    0    0  0.00000000000E+00  0.00000000000E+00 -0.10303436310E+02  0.80203360059E+02  0.79538784030E+02 0.  0.
       11    1    3    3    0    0  0.27103624940E+01 -0.36712325115E+02 -0.20326165316E+02  0.42051086510E+02  0.00000000000E+00 0. -1.
      -12    1    3    3    0    0 -0.27103624940E+01  0.36712325115E+02  0.10022729006E+02  0.38152273549E+02  0.00000000000E+00 0.  1.
</event>
<event>
 5   0  0.2413800E+01  0.7967477E+02  0.7957747E-01  0.1328441E+00
       -2   -1    0    0    0  501  0.00000000000E+00  0.00000000000E+00  0.20940533079E+02  0.20940533079E+02  0.00000000000E+00 0.  1.
        1   -1    0    0  501    0  0.00000000000E+00  0.00000000000E+00 -0.75786851024E+02  0.75786851024E+02  0.00000000000E+00 0. -1.
      -24    2    1    2    0    0  0.00000000000E+00  0.00000000000E+00 -0.54846317945E+02  0.96727384103E+02  0.79674765410E+02 0.  0.
       11    1    3    3    0    0  0.34811319496E+02 -0.14504010649E+02 -0.43009251670E+02  0.57201311341E+02  0.00000000000E+00 0. -1.
      -12    1    3    3    0    0 -0.34811319496E+02  0.14504010649E+02 -0.11837066275E+02  0.39526072761E+02  0.00000000000E+00 0.  1.
</event>
<event>
 5   0  0.2413800E+01  0.7681895E+02  0.7957747E-01  0.1336348E+00
        1   -1    0    0  501    0  0.00000000000E+00  0.00000000000E+00  0.21385848852E+02  0.21385848852E+02  0.00000000000E+00 0. -1.
       -2   -1    0    0    0  501  0.00000000000E+00  0.00000000000E+00 -0.68984290947E+02  0.68984290947E+02  0.00000000000E+00 0.  1.
      -24    2    1    2    0    0  0.00000000000E+00  0.00000000000E+00 -0.47598442095E+02  0.90370139799E+02  0.76818946083E+02 0.  0.
       11    1    3    3    0    0 -0.15705035527E+02 -0.34909686071E+02 -0.20087801188E+02  0.43230244957E+02  0.00000000000E+00 0. -1.
      -12    1    3    3    0    0  0.15705035527E+02  0.34909686071E+02 -0.27510640907E+02  0.47139894841E+02  0.00000000000E+00 0.  1.
</event>
<event>
 5   0  0.2413800E+01  0.7973359E+02  0.7957747E-01  0.1328283E+00
       -2   -1    0    0    0  501  0.00000000000E+00  0.00000000000E+00  0.24011253779E+02  0.24011253779E+02  0.00000000000E+00 0.  1.
        1   -1    0    0  501    0  0.00000000000E+00  0.00000000000E+00 -0.66192359480E+02  0.66192359480E+02  0.00000000000E+00 0. -1.
      -24    2    1    2    0    0  0.00000000000E+00  0.00000000000E+00 -0.42181105701E+02  0.90203613259E+02  0.79733594970E+02 0.  0.
       11    1    3    3    0    0  0.37513464331E+02 -0.10829564137E+02 -0.30198994010E+02  0.49361105181E+02  0.00000000000E+00 0. -1.
      -12    1    3    3    0    0 -0.37513464331E+02  0.10829564137E+02 -0.11982111691E+02  0.40842508078E+02  0.00000000000E+00 0.  1.
</event>
<event>
 5   0  0.2413800E+01  0.7932214E+02  0.7957747E-01  0.1329397E+00
       -2   -1    0    0    0  501  0.00000000000E+00  0.00000000000E+00  0.35979162594E+03  0.35979162594E+03  0.00000000000E+00 0.  1.
        1   -1    0    0  501    0  0.00000000000E+00  0.00000000000E+00 -0.43719763025E+01  0.43719763025E+01  0.00000000000E+00 0. -1.
      -24    2    1    2    0    0  0.00000000000E+00  0.00000000000E+00  0.35541964964E+03  0.36416360224E+03  0.79322139720E+02 0.  0.
       11    1    3    3    0    0  0.75543408720E+01  0.30139330034E+02  0.64549479187E+02  0.71638554873E+02  0.00000000000E+00 0. -1.
      -12    1    3    3    0    0 -0.75543408720E+01 -0.30139330034E+02  0.29087017045E+03  0.29252504737E+03  0.00000000000E+00 0.  1.
</event>
<event>
 5   0  0.2413800E+01  0.7932434E+02  0.7957747E-01  0.1329391E+00
       -2   -1    0    0    0  501  0.00000000000E+00  0.00000000000E+00  0.52116685491E+02  0.52116685491E+02  0.00000000000E+00 0.  1.
        1   -1    0    0  501    0  0.00000000000E+00  0.00000000000E+00 -0.30183956625E+02  0.30183956625E+02  0.00000000000E+00 0. -1.
      -24    2    1    2    0    0  0.00000000000E+00  0.00000000000E+00  0.21932728866E+02  0.82300642116E+02  0.79324341140E+02 0.  0.
       11    1    3    3    0    0  0.12960802169E+02  0.22482884470E+02 -0.20152774909E+02  0.32857218742E+02  0.00000000000E+00 0. -1.
      -12    1    3    3    0    0 -0.12960802169E+02 -0.22482884470E+02  0.42085503775E+02  0.49443423374E+02  0.00000000000E+00 0.  1.
</event>
<event>
 5   0  0.2413800E+01  0.7945054E+02  0.7957747E-01  0.1329049E+00
       -2   -1    0    0    0  501  0.00000000000E+00  0.00000000000E+00  0.85180877161E+02  0.85180877161E+02  0.00000000000E+00 0.  1.
        1   -1    0    0  501    0  0.00000000000E+00  0.00000000000E+00 -0.18526422032E+02  0.18526422032E+02  0.00000000000E+00 0. -1.
      -24    2    1    2    0    0  0.00000000000E+00  0.00000000000E+00  0.66654455128E+02  0.10370729919E+03  0.79450535036E+02 0.  0.
       11    1    3    3    0    0 -0.27978323418E+02 -0.10654566934E+02 -0.75578473914E+00  0.29947914592E+02  0.00000000000E+00 0. -1.
      -12    1    3    3    0    0  0.27978323418E+02  0.10654566934E+02  0.67410239867E+02  0.73759384601E+02  0.00000000000E+00 0.  1.
</event>
<event>
 5   0  0.2413800E+01  0.8080434E+02  0.7957747E-01  0.1325417E+00
       -2   -1    0    0    0  501  0.00000000000E+00  0.00000000000E+00  0.28744211120E+02  0.28744211120E+02  0.00000000000E+00 0.  1.
        1   -1    0    0  501    0  0.00000000000E+00  0.00000000000E+00 -0.56788315454E+02  0.56788315454E+02  0.00000000000E+00 0. -1.
      -24    2    1    2    0    0  0.00000000000E+00  0.00000000000E+00 -0.28044104334E+02  0.85532526574E+02  0.80804339700E+02 0.  0.
       11    1    3    3    0    0  0.21845750229E+02 -0.14048968213E+01 -0.49966744423E+02  0.54551682709E+02  0.00000000000E+00 0. -1.
      -12    1    3    3    0    0 -0.21845750229E+02  0.14048968213E+01  0.21922640089E+02  0.30980843866E+02  0.00000000000E+00 0.  1.
</event>
<event>
 5   0  0.2413800E+01  0.7991046E+02  0.7957747E-01  0.1327806E+00
        1   -1    0    0  501    0  0.00000000000E+00  0.00000000000E+00  0.26946982183E+03  0.26946982183E+03  0.00000000000E+00 0. -1.
       -2   -1    0    0    0  501  0.00000000000E+00  0.00000000000E+00 -0.59243007955E+01  0.59243007955E+01  0.00000000000E+00 0.  1.
      -24    2    1    2    0    0  0.00000000000E+00  0.00000000000E+00  0.26354552103E+03  0.27539412263E+03  0.79910456884E+02 0.  0.
       11    1    3    3    0    0 -0.13702174450E+02 -0.34058374670E+02  0.77424326592E+02  0.85686923261E+02  0.00000000000E+00 0. -1.
      -12    1    3    3    0    0  0.13702174450E+02  0.34058374670E+02  0.18612119444E+03  0.18970719936E+03  0.00000000000E+00 0.  1.
</event>
<event>
 5   0  0.2413800E+01  0.8131324E+02  0.7957747E-01  0.1324073E+00
       -4   -1    0    0    0  501  0.00000000000E+00  0.00000000000E+00  0.35716916230E+03  0.35716916230E+03  0.00000000000E+00 0.  1.
        3   -1    0    0  501    0  0.00000000000E+00  0.00000000000E+00 -0.46279489337E+01  0.46279489337E+01  0.00000000000E+00 0. -1.
      -24    2    1    2    0    0  0.00000000000E+00  0.00000000000E+00  0.35254121336E+03  0.36179711123E+03  0.81313237392E+02 0.  0.
       11    1    3    3    0    0  0.21614070732E+02 -0.27087401389E+02  0.81667713728E+02  0.88715899551E+02  0.00000000000E+00 0. -1.
      -12    1    3    3    0    0 -0.21614070732E+02  0.27087401389E+02  0.27087349964E+03  0.27308121168E+03  0.00000000000E+00 0.  1.
</event>
<event>
 5   0  0.2413800E+01  0.8101758E+02  0.7957747E-01  0.1324852E+00
        1   -1    0    0  501    0  0.00000000000E+00  0.00000000000E+00  0.69400143781E+02  0.69400143781E+02  0.00000000000E+00 0. -1.
       -2   -1    0    0    0  501  0.00000000000E+00  0.00000000000E+00 -0.23644940383E+02  0.23644940383E+02  0.00000000000E+00 0.  1.
      -24    2    1    2    0    0  0.00000000000E+00  0.00000000000E+00  0.45755203398E+02  0.93045084165E+02  0.81017584815E+02 0.  0.
       11    1    3    3    0    0 -0.13262155540E+02  0.21884835890E+02  0.58942237069E+02  0.64257436318E+02  0.00000000000E+00 0. -1.
      -12    1    3    3    0    0  0.13262155540E+02 -0.21884835890E+02 -0.13187033671E+02  0.28787647846E+02  0.00000000000E+00 0.  1.
</event>
<event>
 5   0  0.2413800E+01  0.8055916E+02  0.7957747E-01  0.1326069E+00
       -4   -1    0    0    0  501  0.00000000000E+00  0.00000000000E+00  0.41872961610E+02  0.41872961610E+02  0.00000000000E+00 0.  1.
        3   -1    0    0  501    0  0.00000000000E+00  0.00000000000E+00 -0.38746835762E+02  0.38746835762E+02  0.00000000000E+00 0. -1.
      -24    2    1    2    0    0  0.00000000000E+00  0.00000000000E+00  0.31261258474E+01  0.80619797372E+02  0.80559165000E+02 0.  0.
       11    1    3    3    0    0 -0.21600574340E+02 -0.32857681805E+02 -0.71746425104E+01  0.39971084056E+02  0.00000000000E+00 0. -1.
      -12    1    3    3    0    0  0.21600574340E+02  0.32857681805E+02  0.10300768358E+02  0.40648713316E+02  0.00000000000E+00 0.  1.
</event>
<event>
 5   0  0.2413800E+01  0.7943694E+02  0.7957747E-01  0.1329085E+00
        1   -1    0    0  501    0  0.00000000000E+00  0.00000000000E+00  0.21750452215E+01  0.21750452215E+01  0.00000000000E+00 0. -1.
       -2   -1    0    0    0  501  0.00000000000E+00  0.00000000000E+00 -0.72529839428E+03  0.72529839428E+03  0.00000000000E+00 0.  1.
      -24    2    1    2    0    0  0.00000000000E+00  0.00000000000E+00 -0.72312334906E+03  0.72747343950E+03  0.79436938678E+02 0.  0.
       11    1    3    3    0    0  0.13408777192E+02 -0.10573035855E+02 -0.33156139154E+02  0.37294958863E+02  0.00000000000E+00 0. -1.
      -12    1    3    3    0    0 -0.13408777192E+02  0.10573035855E+02 -0.68996720990E+03  0.69017848064E+03  0.00000000000E+00 0.  1.
</event>
<event>
 5   0  0.2413800E+01  0.7618808E+02  0.7957747E-01  0.1338148E+00
        1   -1    0    0  501    0  0.00000000000E+00  0.00000000000E+00  0.22580687872E+02  0.22580687872E+02  0.00000000000E+00 0. -1.
       -2   -1    0    0    0  501  0.00000000000E+00  0.00000000000E+00 -0.64265349097E+02  0.64265349097E+02  0.00000000000E+00 0.  1.
      -24    2    1    2    0    0  0.00000000000E+00  0.00000000000E+00 -0.41684661225E+02  0.86846036969E+02  0.76188077517E+02 0.  0.
       11    1    3    3    0    0  0.82398852117E+01  0.19557081136E+02  0.15218227310E+02  0.26114547159E+02  0.00000000000E+00 0. -1.
      -12    1    3    3    0    0 -0.82398852117E+01 -0.19557081136E+02 -0.56902888535E+02  0.60731489809E+02  0.00000000000E+00 0.  1.
</event>
<event>
 5   0  0.2413800E+01  0.7941183E+02  0.7957747E-01  0.1329154E+00
       -2   -1    0    0    0  501  0.00000000000E+00  0.00000000000E+00  0.55735832139E+01  0.55735832139E+01  0.00000000000E+00 0.  1.
        1   -1    0    0  501    0  0.00000000000E+00  0.00000000000E+00 -0.28286283374E+03  0.28286283374E+03  0.00000000000E+00 0. -1.
      -24    2    1    2    0    0  0.00000000000E+00  0.00000000000E+00 -0.27728925052E+03  0.28843641695E+03  0.79411826372E+02 0.  0.
       11    1    3    3    0    0  0.37258146684E+02 -0.12861824793E+02 -0.15605002689E+03  0.16095094571E+03  0.00000000000E+00 0. -1.
      -12    1    3    3    0    0 -0.37258146684E+02  0.12861824793E+02 -0.12123922363E+03  0.12748547124E+03  0.00000000000E+00 0.  1.
</event>
<event>
 5   0  0.2413800E+01  0.7841008E+02  0.7957747E-01  0.1331896E+00
       -2   -1    0    0    0  501  0.00000000000E+00  0.00000000000E+00  0.61993769328E+03  0.61993769328E+03  0.00000000000E+00 0.  1.
        1   -1    0    0  501    0  0.00000000000E+00  0.00000000000E+00 -0.24793383770E+01  0.24793383770E+01  0.00000000000E+00 0. -1.
      -24    2    1    2    0    0  0.00000000000E+00  0.00000000000E+00  0.61745835490E+03  0.62241703166E+03  0.78410083900E+02 0.  0.
       11    1    3    3    0    0 -0.23244414047E+01  0.37525405349E+02  0.22052254389E+03  0.22370460755E+03  0.00000000000E+00 0. -1.
      -12    1    3    3    0    0  0.23244414047E+01 -0.37525405349E+02  0.39693581101E+03  0.39871242411E+03  0.00000000000E+00 0.  1.
</event>
<event>
 5   0  0.2413800E+01  0.7825426E+02  0.7957747E-01  0.1332327E+00
       -2   -1    0    0    0  501  0.00000000000E+00  0.00000000000E+00  0.15727143046E+03  0.15727143046E+03  0.00000000000E+00 0.  1.
        1   -1    0    0  501    0  0.00000000000E+00  0.00000000000E+00 -0.97343326637E+01  0.97343326637E+01  0.00000000000E+00 0. -1.
      -24    2    1    2    0    0  0.00000000000E+00  0.00000000000E+00  0.14753709780E+03  0.16700576312E+03  0.78254263081E+02 0.  0.
       11    1    3    3    0    0 -0.98550373816E+01  0.31812764231E+02  0.29940163339E+02  0.44783781780E+02  0.00000000000E+00 0. -1.
      -12    1    3    3    0    0  0.98550373816E+01 -0.31812764231E+02  0.11759693446E+03  0.12222198134E+03  0.00000000000E+00 0.  1.
</event>
<event>
 5   0  0.2413800E+01  0.7914510E+02  0.7957747E-01  0.1329879E+00
       -2   -1    0    0    0  501  0.00000000000E+00  0.00000000000E+00  0.68885912131E+01  0.68885912131E+01  0.00000000000E+00 0.  1.
        1   -1    0    0  501    0  0.00000000000E+00  0.00000000000E+00 -0.22733049596E+03  0.22733049596E+03  0.00000000000E+00 0. -1.
      -24    2    1    2    0    0  0.00000000000E+00  0.00000000000E+00 -0.22044190475E+03  0.23421908717E+03  0.79145103624E+02 0.  0.
       11    1    3    3    0    0 -0.21219557820E+02 -0.24597850103E+02 -0.17709620340E+03  0.18005107365E+03  0.00000000000E+00 0. -1.
      -12    1    3    3    0    0  0.21219557820E+02  0.24597850103E+02 -0.43345701347E+02  0.54168013523E+02  0.00000000000E+00 0.  1.
</event>
<event>
 5   0  0.2413800E+01  0.8051970E+02  0.7957747E-01  0.1326174E+00
       -2   -1    0    0    0  501  0.00000000000E+00  0.00000000000E+00  0.37586097129E+02  0.37586097129E+02  0.00000000000E+00 0.  1.
        1   -1    0    0  501    0  0.00000000000E+00  0.00000000000E+00 -0.43123809637E+02  0.43123809637E+02  0.00000000000E+00 0. -1.
      -24    2    1    2    0    0  0.00000000000E+00  0.00000000000E+00 -0.55377125083E+01  0.80709906766E+02  0.80519704361E+02 0.  0.
       11    1    3    3    0    0 -0.21809314774E+02 -0.33696483088E+02  0.36206405776E+00  0.40140132957E+02  0.00000000000E+00 0. -1.
      -12    1    3    3    0    0  0.21809314774E+02  0.33696483088E+02 -0.58997765660E+01  0.40569773809E+02  0.00000000000E+00 0.  1.
</event>
<event>
 5   0  0.2413800E+01  0.7702623E+02  0.7957747E-01  0.1335761E+00
       -2   -1    0    0    0  501  0.00000000000E+00  0.00000000000E+00  0.16903108651E+03  0.16903108651E+03  0.00000000000E+00 0.  1.
        1   -1    0    0  501    0  0.00000000000E+00  0.00000000000E+00 -0.87750729232E+01  0.87750729232E+01  0.00000000000E+00 0. -1.
      -24    2    1    2    0    0  0.00000000000E+00  0.00000000000E+00  0.16025601359E+03  0.17780615944E+03  0.77026232166E+02 0.  0.
       11    1    3    3    0    0  0.22786305148E+02 -0.12616776666E+02  0.14638957662E+02  0.29878049421E+02  0.00000000000E+00 0. -1.
      -12    1    3    3    0    0 -0.22786305148E+02  0.12616776666E+02  0.14561705593E+03  0.14792811002E+03  0.00000000000E+00 0.  1.
</event>
<event>
 5   0  0.2413800E+01  0.7631700E+02  0.7957747E-01  0.1337778E+00
       -2   -1    0    0    0  501  0.00000000000E+00  0.00000000000E+00  0.19497382532E+02  0.19497382532E+02  0.00000000000E+00 0.  1.
        1   -1    0    0  501    0  0.00000000000E+00  0.00000000000E+00 -0.74680331088E+02  0.74680331088E+02  0.00000000000E+00 0. -1.
      -24    2    1    2    0    0  0.00000000000E+00  0.00000000000E+00 -0.55182948557E+02  0.94177713620E+02  0.76316996346E+02 0.  0.
       11    1    3    3    0    0 -0.10309702156E+02 -0.31890251590E+02 -0.50103464172E+02  0.60279641895E+02  0.00000000000E+00 0. -1.
      -12    1    3    3    0    0  0.10309702156E+02  0.31890251590E+02 -0.50794843852E+01  0.33898071725E+02  0.00000000000E+00 0.  1.
</event>
<event>
 5   0  0.2413800E+01  0.7995030E+02  0.7957747E-01  0.1327698E+00
       -2   -1    0    0    0  501  0.00000000000E+00  0.00000000000E+00  0.51709392499E+02  0.51709392499E+02  0.00000000000E+00 0.  1.
        1   -1    0    0  501    0  0.00000000000E+00  0.00000000000E+00 -0.30903721624E+02  0.30903721624E+02  0.00000000000E+00 0. -1.
      -24    2    1    2    0    0  0.00000000000E+00  0.00000000000E+00  0.20805670875E+02  0.82613114122E+02  0.79950301341E+02 0.  0.
       11    1    3    3    0    0  0.19025114475E+02  0.33219556978E+02 -0.14922485256E+01  0.38310843795E+02  0.00000000000E+00 0. -1.
      -12    1    3    3    0    0 -0.19025114475E+02 -0.33219556978E+02  0.22297919401E+02  0.44302270328E+02  0.00000000000E+00 0.  1.
</event>
<event>
 5   0  0.2413800E+01  0.8063728E+02  0.7957747E-01  0.1325861E+00
        3   -1    0    0  501    0  0.00000000000E+00  0.00000000000E+00  0.17237791980E+02  0.17237791980E+02  0.00000000000E+00 0. -1.
       -4   -1    0    0    0  501  0.00000000000E+00  0.00000000000E+00 -0.94304004554E+02  0.94304004554E+02  0.00000000000E+00 0.  1.
      -24    2    1    2    0    0  0.00000000000E+00  0.00000000000E+00 -0.77066212574E+02  0.11154179653E+03  0.80637282032E+02 0.  0.
       11    1    3    3    0    0 -0.24714314562E+02 -0.23354803207E+02 -0.85656738888E+01  0.35065865828E+02  0.00000000000E+00 0. -1.
      -12    1    3    3    0    0  0.24714314562E+02  0.23354803207E+02 -0.68500538685E+02  0.76475930706E+02  0.00000000000E+00 0.  1.
</event>
<event>
 5   0  0.2413800E+01  0.7855000E+02  0.7957747E-01  0.1331510E+00
        1   -1    0    0  501    0  0.00000000000E+00  0.00000000000E+00  0.49253815596E+02  0.49253815596E+02  0.00000000000E+00 0. -1.
       -2   -1    0    0    0  501  0.00000000000E+00  0.00000000000E+00 -0.31317888104E+02  0.31317888104E+02  0.00000000000E+00 0.  1.
      -24    2    1    2    0    0  0.00000000000E+00  0.00000000000E+00  0.17935927492E+02  0.80571703700E+02  0.78549996449E+02 0.  0.
       11    1    3    3    0    0  0.15087695513E+02 -0.21567311232E+02  0.38868494772E+02  0.46941957304E+02  0.00000000000E+00 0. -1.
      -12    1    3    3    0    0 -0.15087695513E+02  0.21567311232E+02 -0.20932567280E+02  0.33629746396E+02  0.00000000000E+00 0.  1.
</event>
<event>
 5   0  0.2413800E+01  0.8057189E+02  0.7957747E-01  0.1326035E+00
        1   -1    0    0  501    0  0.00000000000E+00  0.00000000000E+00  0.29623483218E+03  0.29623483218E+03  0.00000000000E+00 0. -1.
       -2   -1    0    0    0  501  0.00000000000E+00  0.00000000000E+00 -0.54786174892E+01  0.54786174892E+01  0.00000000000E+00 0.  1.
      -24    2    1    2    0    0  0.00000000000E+00  0.00000000000E+00  0.29075621469E+03  0.30171344967E+03  0.80571889204E+02 0.  0.
       11    1    3    3    0    0 -0.39068471882E+02  0.77957865951E+01  0.16779525083E+03  0.17245975178E+03  0.00000000000E+00 0. -1.
      -12    1    3    3    0    0  0.39068471882E+02 -0.77957865951E+01  0.12296096386E+03  0.12925369789E+03  0.00000000000E+00 0.  1.
</event>
<event>
 5   0  0.2413800E+01  0.8016734E+02  0.7957747E-01  0.1327116E+00
        1   -1    0    0  501    0  0.00000000000E+00  0.00000000000E+00  0.41882495475E+02  0.41882495475E+02  0.00000000000E+00 0. -1.
       -2   -1    0    0    0  501  0.00000000000E+00  0.00000000000E+00 -0.38362104793E+02  0.38362104793E+02  0.00000000000E+00 0.  1.
      -24    2    1    2    0    0  0.00000000000E+00  0.00000000000E+00  0.35203906821E+01  0.80244600268E+02  0.80167341989E+02 0.  0.
       11    1    3    3    0    0  0.14685401056E+02  0.15383135990E+02  0.35769383700E+02  0.41614308685E+02  0.00000000000E+00 0. -1.
      -12    1    3    3    0    0 -0.14685401056E+02 -0.15383135990E+02 -0.32248993018E+02  0.38630291582E+02  0.00000000000E+00 0.  1.
</event>
<event>
 5   0  0.2413800E+01  0.8133972E+02  0.7957747E-01  0.1324003E+00
        3   -1    0    0  501    0  0.00000000000E+00  0.00000000000E+00  0.93189185687E+02  0.93189185687E+02  0.00000000000E+00 0. -1.
       -4   -1    0    0    0  501  0.00000000000E+00  0.00000000000E+00 -0.17749241202E+02  0.17749241202E+02  0.00000000000E+00 0.  1.
      -24    2    1    2    0    0  0.00000000000E+00  0.00000000000E+00  0.75439944486E+02  0.11093842689E+03  0.81339715616E+02 0.  0.
       11    1    3    3    0    0  0.23362077433E+02  0.20193562339E+02  0.73817241116E+02  0.80015946585E+02  0.00000000000E+00 0. -1.
      -12    1    3    3    0    0 -0.23362077433E+02 -0.20193562339E+02  0.16227033702E+01  0.30922480304E+02  0.00000000000E+00 0.  1.
</event>
<event>
 4   0  0.2413800E+01  0.1555865E+03  0.7957747E-01  0.1198433E+00
        3   -1    0    0  501    0  0.00000000000E+00  0.00000000000E+00  0.23991730428E+02  0.23991730428E+02  0.00000000000E+00 0. -1.
       -4   -1    0    0    0  501  0.00000000000E+00  0.00000000000E+00 -0.25224469450E+03  0.25224469450E+03  0.00000000000E+00 0.  1.
       11    1    1    2    0    0  0.11132277308E+02  0.25421916584E+02  0.14903694142E+02  0.31501135534E+02  0.00000000000E+00 0. -1.
      -12    1    1    2    0    0 -0.11132277308E+02 -0.25421916584E+02 -0.24315665821E+03  0.24473528939E+03  0.00000000000E+00 0.  1.
</event>
<event>
 5   0  0.2413800E+01  0.8119987E+02  0.7957747E-01  0.1324371E+00
       -2   -1    0    0    0  501  0.00000000000E+00  0.00000000000E+00  0.11381567896E+02  0.11381567896E+02  0.00000000000E+00 0.  1.
        1   -1    0    0  501    0  0.00000000000E+00  0.00000000000E+00 -0.14482670008E+03  0.14482670008E+03  0.00000000000E+00 0. -1.
      -24    2    1    2    0    0  0.00000000000E+00  0.00000000000E+00 -0.13344513218E+03  0.15620826797E+03  0.81199874879E+02 0.  0.
       11    1    3    3    0    0 -0.27713307718E+02 -0.20919111119E+02 -0.10719994543E+03  0.11268302860E+03  0.00000000000E+00 0. -1.
      -12    1    3    3    0    0  0.27713307718E+02  0.20919111119E+02 -0.26245186751E+02  0.43525239371E+02  0.00000000000E+00 0.  1.
</event>
<event>
 5   0  0.2413800E+01  0.7960314E+02  0.7957747E-01  0.1328635E+00
        1   -1    0    0  501    0  0.00000000000E+00  0.00000000000E+00  0.27487477917E+03  0.27487477917E+03  0.00000000000E+00 0. -1.
       -2   -1    0    0    0  501  0.00000000000E+00  0.00000000000E+00 -0.57632235778E+01  0.57632235778E+01  0.00000000000E+00 0.  1.
      -24    2    1    2    0    0  0.00000000000E+00  0.00000000000E+00  0.26911155559E+03  0.28063800275E+03  0.79603135824E+02 0.  0.
       11    1    3    3    0    0 -0.32666194794E+02 -0.20535660839E+02  0.16898481173E+03  0.17333395583E+03  0.00000000000E+00 0. -1.
      -12    1    3    3    0    0  0.32666194794E+02  0.20535660839E+02  0.10012674386E+03  0.10730404692E+03  0.00000000000E+00 0.  1.
</event>
<event>
 5   0  0.2413800E+01  0.8192660E+02  0.7957747E-01  0.1322467E+00
       -2   -1    0    0    0  501  0.00000000000E+00  0.00000000000E+00  0.20207570999E+02  0.20207570999E+02  0.00000000000E+00 0.  1.
        1   -1    0    0  501    0  0.00000000000E+00  0.00000000000E+00 -0.83037781076E+02  0.83037781076E+02  0.00000000000E+00 0. -1.
      -24    2    1    2    0    0  0.00000000000E+00  0.00000000000E+00 -0.62830210076E+02  0.10324535207E+03  0.81926597799E+02 0.  0.
       11    1    3    3    0    0  0.23147034514E+02 -0.25631603495E+02 -0.59175031800E+02  0.68516046975E+02  0.00000000000E+00 0. -1.
      -12    1    3    3    0    0 -0.23147034514E+02  0.25631603495E+02 -0.36551782764E+01  0.34729305100E+02  0.00000000000E+00 0.  1.
</event>
<event>
 5   0  0.2413800E+01  0.7952803E+02  0.7957747E-01  0.1328838E+00
        3   -1    0    0  501    0  0.00000000000E+00  0.00000000000E+00  0.52529312670E+02  0.52529312670E+02  0.00000000000E+00 0. -1.
       -4   -1    0    0    0  501  0.00000000000E+00  0.00000000000E+00 -0.30100851558E+02  0.30100851558E+02  0.00000000000E+00 0.  1.
      -24    2    1    2    0    0  0.00000000000E+00  0.00000000000E+00  0.22428461112E+02  0.82630164228E+02  0.79528033878E+02 0.  0.
       11    1    3    3    0    0 -0.18045554356E+02 -0.30920380868E+02  0.29194303447E+02  0.46195447165E+02  0.00000000000E+00 0. -1.
      -12    1    3    3    0    0  0.18045554356E+02  0.30920380868E+02 -0.67658423351E+01  0.36434717063E+02  0.00000000000E+00 0.  1.
</event>
<event>
 5   0  0.2413800E+01  0.7045813E+02  0.7957747E-01  0.1355452E+00
        3   -1    0    0  501    0  0.00000000000E+00  0.00000000000E+00  0.71105536316E+02  0.71105536316E+02  0.00000000000E+00 0. -1.
       -4   -1    0    0    0  501  0.00000000000E+00  0.00000000000E+00 -0.17454155688E+02  0.17454155688E+02  0.00000000000E+00 0.  1.
      -24    2    1    2    0    0  0.00000000000E+00  0.00000000000E+00  0.53651380629E+02  0.88559692004E+02  0.70458132280E+02 0.  0.
       11    1    3    3    0    0  0.32947528227E+02 -0.11222989817E+02  0.33663106499E+02  0.48422100903E+02  0.00000000000E+00 0. -1.
      -12    1    3    3    0    0 -0.32947528227E+02  0.11222989817E+02  0.19988274130E+02  0.40137591101E+02  0.00000000000E+00 0.  1.
</event>
<event>
 5   0  0.2413800E+01  0.8284837E+02  0.7957747E-01  0.1320084E+00
        3   -1    0    0  501    0  0.00000000000E+00  0.00000000000E+00  0.57284781842E+01  0.57284781842E+01  0.00000000000E+00 0. -1.
       -4   -1    0    0    0  501  0.00000000000E+00  0.00000000000E+00 -0.29954957114E+03  0.29954957114E+03  0.00000000000E+00 0.  1.
      -24    2    1    2    0    0  0.00000000000E+00  0.00000000000E+00 -0.29382109296E+03  0.30527804932E+03  0.82848371942E+02 0.  0.
       11    1    3    3    0    0 -0.34642851951E+02  0.27437699675E+01 -0.63834666230E+02  0.72680947143E+02  0.00000000000E+00 0. -1.
      -12    1    3    3    0    0  0.34642851951E+02 -0.27437699675E+01 -0.22998642673E+03  0.23259710218E+03  0.00000000000E+00 0.  1.
</event>
<event>
 5   0  0.2413800E+01  0.7683648E+02  0.7957747E-01  0.1336299E+00
       -2   -1    0    0    0  501  0.00000000000E+00  0.00000000000E+00  0.22166969143E+03  0.22166969143E+03  0.00000000000E+00 0.  1.
        1   -1    0    0  501    0  0.00000000000E+00  0.00000000000E+00 -0.66583801598E+01  0.66583801598E+01  0.00000000000E+00 0. -1.
      -24    2    1    2    0    0  0.00000000000E+00  0.00000000000E+00  0.21501131127E+03  0.22832807158E+03  0.76836477676E+02 0.  0.
       11    1    3    3    0    0 -0.27156422284E+01 -0.21762745376E+02  0.13771753700E+02  0.25896968915E+02  0.00000000000E+00 0. -1.
      -12    1    3    3    0    0  0.27156422284E+01  0.21762745376E+02  0.20123955757E+03  0.20243110267E+03  0.00000000000E+00 0.  1.
</event>
<event>
 5   0  0.2413800E+01  0.7865241E+02  0.7957747E-01  0.1331228E+00
       -2   -1    0    0    0  501  0.00000000000E+00  0.00000000000E+00  0.33365144886E+01  0.33365144886E+01  0.00000000000E+00 0.  1.
        1   -1    0    0  501    0  0.00000000000E+00  0.00000000000E+00 -0.46352277285E+03  0.46352277285E+03  0.00000000000E+00 0. -1.
      -24    2    1    2    0    0  0.00000000000E+00  0.00000000000E+00 -0.46018625836E+03  0.46685928734E+03  0.78652411213E+02 0.  0.
       11    1    3    3    0    0  0.33255171547E+02 -0.20823251424E+02 -0.21434810082E+03  0.21790966605E+03  0.00000000000E+00 0. -1.
      -12    1    3    3    0    0 -0.33255171547E+02  0.20823251424E+02 -0.24583815754E+03  0.24894962129E+03  0.00000000000E+00 0.  1.
</event>
<event>
 5   0  0.2413800E+01  0.7106231E+02  0.7957747E-01  0.1353540E+00
        1   -1    0    0  501    0  0.00000000000E+00  0.00000000000E+00  0.55442702971E+01  0.55442702971E+01  0.00000000000E+00 0. -1.
       -2   -1    0    0    0  501  0.00000000000E+00  0.00000000000E+00 -0.22770591075E+03  0.22770591075E+03  0.00000000000E+00 0.  1.
      -24    2    1    2    0    0  0.00000000000E+00  0.00000000000E+00 -0.22216164045E+03  0.23325018105E+03  0.71062313991E+02 0.  0.
       11    1    3    3    0    0  0.23983717903E+02  0.11685537528E+02 -0.34054834149E+02  0.43260862690E+02  0.00000000000E+00 0. -1.
      -12    1    3    3    0    0 -0.23983717903E+02 -0.11685537528E+02 -0.18810680630E+03  0.18998931836E+03  0.00000000000E+00 0.  1.
</event>
<event>
 5   0  0.2413800E+01  0.8391251E+02  0.7957747E-01  0.1317375E+00
        1   -1    0    0  501    0  0.00000000000E+00  0.00000000000E+00  0.16807249703E+03  0.16807249703E+03  0.00000000000E+00 0. -1.
       -2   -1    0    0    0  501  0.00000000000E+00  0.00000000000E+00 -0.10473620217E+02  0.10473620217E+02  0.00000000000E+00 0.  1.
      -24    2    1    2    0    0  0.00000000000E+00  0.00000000000E+00  0.15759887682E+03  0.17854611725E+03  0.83912514034E+02 0.  0.
       11    1    3    3    0    0 -0.18507939295E+02 -0.33876843083E+02  0.11377145601E+03  0.12014211800E+03  0.00000000000E+00 0. -1.
      -12    1    3    3    0    0  0.18507939295E+02  0.33876843083E+02  0.43827420807E+02  0.58403999253E+02  0.00000000000E+00 0.  1.
</event>
<event>
 5   0  0.2413800E+01  0.8182753E+02  0.7957747E-01  0.1322725E+00
       -2   -1    0    0    0  501  0.00000000000E+00  0.00000000000E+00  0.36925927806E+02  0.36925927806E+02  0.00000000000E+00 0.  1.
        1   -1    0    0  501    0  0.00000000000E+00  0.00000000000E+00 -0.45332271724E+02  0.45332271724E+02  0.00000000000E+00 0. -1.
      -24    2    1    2    0    0  0.00000000000E+00  0.00000000000E+00 -0.84063439176E+01  0.82258199530E+02  0.81827530647E+02 0.  0.
       11    1    3    3    0    0 -0.34179899631E+02  0.22400364024E+02 -0.22193759748E+01  0.40926366525E+02  0.00000000000E+00 0. -1.
      -12    1    3    3    0    0  0.34179899631E+02 -0.22400364024E+02 -0.61869679428E+01  0.41331833005E+02  0.00000000000E+00 0.  1.
</event>
<event>
 5   0  0.2413800E+01  0.7697505E+02  0.7957747E-01  0.1335906E+00
       -2   -1    0    0    0  501  0.00000000000E+00  0.00000000000E+00  0.21014396842E+02  0.21014396842E+02  0.00000000000E+00 0.  1.
        1   -1    0    0  501    0  0.00000000000E+00  0.00000000000E+00 -0.70489268846E+02  0.70489268846E+02  0.00000000000E+00 0. -1.
      -24    2    1    2    0    0  0.00000000000E+00  0.00000000000E+00 -0.49474872004E+02  0.91503665687E+02  0.76975047089E+02 0.  0.
       11    1    3    3    0    0  0.20176039849E+02  0.16665246743E+01 -0.63648434200E+02  0.66790516277E+02  0.00000000000E+00 0. -1.
      -12    1    3    3    0    0 -0.20176039849E+02 -0.16665246743E+01  0.14173562196E+02  0.24713149410E+02  0.00000000000E+00 0.  1.
</event>
<event>
 5   0  0.2413800E+01  0.8050335E+02  0.7957747E-01  0.1326217E+00
       -2   -1    0    0    0  501  0.00000000000E+00  0.00000000000E+00  0.76861446167E+01  0.76861446167E+01  0.00000000000E+00 0.  1.
        1   -1    0    0  501    0  0.00000000000E+00  0.00000000000E+00 -0.21079455022E+03  0.21079455022E+03  0.00000000000E+00 0. -1.
      -24    2    1    2    0    0  0.00000000000E+00  0.00000000000E+00 -0.20310840561E+03  0.21848069484E+03  0.80503351419E+02 0.  0.
       11    1    3    3    0    0  0.23847547032E+02  0.32307854683E+02 -0.94026071952E+02  0.10224189543E+03  0.00000000000E+00 0. -1.
      -12    1    3    3    0    0 -0.23847547032E+02 -0.32307854683E+02 -0.10908233365E+03  0.11623879941E+03  0.00000000000E+00 0.  1.
</event>
<event>
 5   0  0.2413800E+01  0.8246034E+02  0.7957747E-01  0.1321083E+00
       -2   -1    0    0    0  501  0.00000000000E+00  0.00000000000E+00  0.14356000918E+03  0.14356000918E+03  0.00000000000E+00 0.  1.
        1   -1    0    0  501    0  0.00000000000E+00  0.00000000000E+00 -0.11841229633E+02  0.11841229633E+02  0.00000000000E+00 0. -1.
      -24    2    1    2    0    0  0.00000000000E+00  0.00000000000E+00  0.13171877955E+03  0.15540123881E+03  0.82460342828E+02 0.  0.
       11    1    3    3    0    0  0.38410995811E+02 -0.34547000231E+01  0.38381828443E+02  0.54410516503E+02  0.00000000000E+00 0. -1.
      -12    1    3    3    0    0 -0.38410995811E+02  0.34547000231E+01  0.93336951102E+02  0.10099072231E+03  0.00000000000E+00 0.  1.
</event>
<event>
 5   0  0.2413800E+01  0.8149995E+02  0.7957747E-01  0.1323582E+00
        1   -1    0    0  501    0  0.00000000000E+00  0.00000000000E+00  0.45320728635E+02  0.45320728635E+02  0.00000000000E+00 0. -1.
       -2   -1    0    0    0  501  0.00000000000E+00  0.00000000000E+00 -0.36640195302E+02  0.36640195302E+02  0.00000000000E+00 0.  1.
      -24    2    1    2    0    0  0.00000000000E+00  0.00000000000E+00  0.86805333329E+01  0.81960923937E+02  0.81499947201E+02 0.  0.
       11    1    3    3    0    0  0.37603803597E+02  0.10275976264E+02  0.16278325135E+02  0.42244829298E+02  0.00000000000E+00 0. -1.
      -12    1    3    3    0    0 -0.37603803597E+02 -0.10275976264E+02 -0.75977918023E+01  0.39716094640E+02  0.00000000000E+00 0.  1.
</event>
<event>
 5   0  0.2413800E+01  0.7416057E+02  0.7957747E-01  0.1344067E+00
        1   -1    0    0  501    0  0.00000000000E+00  0.00000000000E+00  0.29377845310E+02  0.29377845310E+02  0.00000000000E+00 0. -1.
       -2   -1    0    0    0  501  0.00000000000E+00  0.00000000000E+00 -0.46802197381E+02  0.46802197381E+02  0.00000000000E+00 0.  1.
      -24    2    1    2    0    0  0.00000000000E+00  0.00000000000E+00 -0.17424352071E+02  0.76180042691E+02  0.74160574831E+02 0.  0.
       11    1    3    3    0    0  0.34398168162E+02  0.13571575165E+02 -0.58940993083E+01  0.37445454090E+02  0.00000000000E+00 0. -1.
      -12    1    3    3    0    0 -0.34398168162E+02 -0.13571575165E+02 -0.11530252763E+02  0.38734588601E+02  0.00000000000E+00 0.  1.
</event>
<event>
 5   0  0.2413800E+01  0.8087346E+02  0.7957747E-01  0.1325234E+00
        1   -1    0    0  501    0  0.00000000000E+00  0.00000000000E+00  0.11111441530E+03  0.11111441530E+03  0.00000000000E+00 0. -1.
       -2   -1    0    0    0  501  0.00000000000E+00  0.00000000000E+00 -0.14715725626E+02  0.14715725626E+02  0.00000000000E+00 0.  1.
      -24    2    1    2    0    0  0.00000000000E+00  0.00000000000E+00  0.96398689672E+02  0.12583014092E+03  0.80873462856E+02 0.  0.
       11    1    3    3    0    0 -0.37899221238E+02 -0.13747010803E+02  0.53069544234E+02  0.66646138685E+02  0.00000000000E+00 0. -1.
      -12    1    3    3    0    0  0.37899221238E+02  0.13747010803E+02  0.43329145438E+02  0.59184002238E+02  0.00000000000E+00 0.  1.
</event>
<event>
 5   0  0.2413800E+01  0.8107067E+02  0.7957747E-01  0.1324712E+00
       -2   -1    0    0    0  501  0.00000000000E+00  0.00000000000E+00  0.47557111596E+02  0.47557111596E+02  0.00000000000E+00 0.  1.
        1   -1    0    0  501    0  0.00000000000E+00  0.00000000000E+00 -0.34550320083E+02  0.34550320083E+02  0.00000000000E+00 0. -1.
      -24    2    1    2    0    0  0.00000000000E+00  0.00000000000E+00  0.13006791513E+02  0.82107431679E+02  0.81070671093E+02 0.  0.
       11    1    3    3    0    0 -0.13653158589E+02 -0.38019329230E+02  0.31086214522E+01  0.40515943305E+02  0.00000000000E+00 0. -1.
      -12    1    3    3    0    0  0.13653158589E+02  0.38019329230E+02  0.98981700609E+01  0.41591488374E+02  0.00000000000E+00 0.  1.
</event>
<event>
 5   0  0.2413800E+01  0.7863982E+02  0.7957747E-01  0.1331263E+00
       -4   -1    0    0    0  501  0.00000000000E+00  0.00000000000E+00  0.16870885447E+02  0.16870885447E+02  0.00000000000E+00 0.  1.
        3   -1    0    0  501    0  0.00000000000E+00  0.00000000000E+00 -0.91640447272E+02  0.91640447272E+02  0.00000000000E+00 0. -1.
      -24    2    1    2    0    0  0.00000000000E+00  0.00000000000E+00 -0.74769561825E+02  0.10851133272E+03  0.78639824218E+02 0.  0.
       11    1    3    3    0    0 -0.13161263335E+02  0.27641817683E+02 -0.71430142752E+02  0.77714568975E+02  0.00000000000E+00 0. -1.
      -12    1    3    3    0    0  0.13161263335E+02 -0.27641817683E+02 -0.33394190731E+01  0.30796763744E+02  0.00000000000E+00 0.  1.
</event>
<event>
 5   0  0.2413800E+01  0.8065414E+02  0.7957747E-01  0.1325816E+00
       -2   -1    0    0    0  501  0.00000000000E+00  0.00000000000E+00  0.71136338220E+02  0.71136338220E+02  0.00000000000E+00 0.  1.
        1   -1    0    0  501    0  0.00000000000E+00  0.00000000000E+00 -0.22861350323E+02  0.22861350323E+02  0.00000000000E+00 0. -1.
      -24    2    1    2    0    0  0.00000000000E+00  0.00000000000E+00  0.48274987897E+02  0.93997688542E+02  0.80654144313E+02 0.  0.
       11    1    3    3    0    0  0.37693128814E+02 -0.12134119954E+02  0.15241584704E+02  0.42430115851E+02  0.00000000000E+00 0. -1.
      -12    1    3    3    0    0 -0.37693128814E+02  0.12134119954E+02  0.33033403193E+02  0.51567572691E+02  0.00000000000E+00 0.  1.
</event>
<event>
 5   0  0.2413800E+01  0.8028683E+02  0.7957747E-01  0.1326796E+00
        3   -1    0    0  501    0  0.00000000000E+00  0.00000000000E+00  0.19669184765E+03  0.19669184765E+03  0.00000000000E+00 0. -1.
       -4   -1    0    0    0  501  0.00000000000E+00  0.00000000000E+00 -0.81929870560E+01  0.81929870560E+01  0.00000000000E+00 0.  1.
      -24    2    1    2    0    0  0.00000000000E+00  0.00000000000E+00  0.18849886059E+03  0.20488483470E+03  0.80286829849E+02 0.  0.
       11    1    3    3    0    0 -0.36328862957E+02 -0.27717841804E+01  0.13725686626E+03  0.14201026867E+03  0.00000000000E+00 0. -1.
      -12    1    3    3    0    0  0.36328862957E+02  0.27717841804E+01  0.51241994332E+02  0.62874566037E+02  0.00000000000E+00 0.  1.
</event>
<event>
 5   0  0.2413800E+01  0.8072051E+02  0.7957747E-01  0.1325639E+00
        1   -1    0    0  501    0  0.00000000000E+00  0.00000000000E+00  0.41182753716E+02  0.41182753716E+02  0.00000000000E+00 0. -1.
       -2   -1    0    0    0  501  0.00000000000E+00  0.00000000000E+00 -0.39554181777E+02  0.39554181777E+02  0.00000000000E+00 0.  1.
      -24    2    1    2    0    0  0.00000000000E+00  0.00000000000E+00  0.16285719396E+01  0.80736935493E+02  0.80720508585E+02 0.  0.
       11    1    3    3    0    0 -0.11884477392E+02  0.11002642890E+02  0.37790054608E+02  0.41114318439E+02  0.00000000000E+00 0. -1.
      -12    1    3    3    0    0  0.11884477392E+02 -0.11002642890E+02 -0.36161482668E+02  0.39622617054E+02  0.00000000000E+00 0.  1.
</event>
<event>
 5   0  0.2413800E+01  0.7978645E+02  0.7957747E-01  0.1328140E+00
       -2   -1    0    0    0  501  0.00000000000E+00  0.00000000000E+00  0.72501889410E+01  0.72501889410E+01  0.00000000000E+00 0.  1.
        1   -1    0    0  501    0  0.00000000000E+00  0.00000000000E+00 -0.21950731731E+03  0.21950731731E+03  0.00000000000E+00 0. -1.
      -24    2    1    2    0    0  0.00000000000E+00  0.00000000000E+00 -0.21225712837E+03  0.22675750625E+03  0.79786453097E+02 0.  0.
       11    1    3    3    0    0 -0.29052695980E+02  0.27318178357E+02 -0.10311074580E+03  0.11055391405E+03  0.00000000000E+00 0. -1.
      -12    1    3    3    0    0  0.29052695980E+02 -0.27318178357E+02 -0.10914638257E+03  0.11620359220E+03  0.00000000000E+00 0.  1.
</event>
<event>
 5   0  0.2413800E+01  0.8084016E+02  0.7957747E-01  0.1325322E+00
       -2   -1    0    0    0  501  0.00000000000E+00  0.00000000000E+00  0.29248222928E+03  0.29248222928E+03  0.00000000000E+00 0.  1.
        1   -1    0    0  501    0  0.00000000000E+00  0.00000000000E+00 -0.55859220169E+01  0.55859220169E+01  0.00000000000E+00 0. -1.
      -24    2    1    2    0    0  0.00000000000E+00  0.00000000000E+00  0.28689630726E+03  0.29806815129E+03  0.80840161407E+02 0.  0.
       11    1    3    3    0    0 -0.24074818961E+02 -0.41529745518E+01  0.24716923216E+02  0.34752991222E+02  0.00000000000E+00 0. -1.
      -12    1    3    3    0    0  0.24074818961E+02  0.41529745518E+01  0.26217938404E+03  0.26331516007E+03  0.00000000000E+00 0.  1.
</event>
<event>
 5   0  0.2413800E+01  0.1049713E+03  0.7957747E-01  0.1271607E+00
       -2   -1    0    0    0  501  0.00000000000E+00  0.00000000000E+00  0.74762148835E+01  0.74762148835E+01  0.00000000000E+00 0.  1.
        1   -1    0    0  501    0  0.00000000000E+00  0.00000000000E+00 -0.36846788758E+03  0.36846788758E+03  0.00000000000E+00 0. -1.
      -24    2    1    2    0    0  0.00000000000E+00  0.00000000000E+00 -0.36099167270E+03  0.37594410247E+03  0.10497133142E+03 0.  0.
       11    1    3    3    0    0  0.28238704378E+02  0.36286692214E+02 -0.27114105517E+03  0.27501203656E+03  0.00000000000E+00 0. -1.
      -12    1    3    3    0    0 -0.28238704378E+02 -0.36286692214E+02 -0.89850617532E+02  0.10093206590E+03  0.00000000000E+00 0.  1.
</event>
<event>
 5   0  0.2413800E+01  0.7018142E+02  0.7957747E-01  0.1356334E+00
        1   -1    0    0  501    0  0.00000000000E+00  0.00000000000E+00  0.12099671817E+03  0.12099671817E+03  0.00000000000E+00 0. -1.
       -2   -1    0    0    0  501  0.00000000000E+00  0.00000000000E+00 -0.10176788548E+02  0.10176788548E+02  0.00000000000E+00 0.  1.
      -24    2    1    2    0    0  0.00000000000E+00  0.00000000000E+00  0.11081992962E+03  0.13117350672E+03  0.70181422493E+02 0.  0.
       11    1    3    3    0    0 -0.40711015870E+01  0.22742359753E+02  0.10477479155E+03  0.10729187173E+03  0.00000000000E+00 0. -1.
      -12    1    3    3    0    0  0.40711015870E+01 -0.22742359753E+02  0.60451380722E+01  0.23881634986E+02  0.00000000000E+00 0.  1.
</event>
<event>
 5   0  0.2413800E+01  0.8032740E+02  0.7957747E-01  0.1326687E+00
        1   -1    0    0  501    0  0.00000000000E+00  0.00000000000E+00  0.87295924096E+01  0.87295924096E+01  0.00000000000E+00 0. -1.
       -2   -1    0    0    0  501  0.00000000000E+00  0.00000000000E+00 -0.18478787476E+03  0.18478787476E+03  0.00000000000E+00 0.  1.
      -24    2    1    2    0    0  0.00000000000E+00  0.00000000000E+00 -0.17605828235E+03  0.19351746717E+03  0.80327400778E+02 0.  0.
       11    1    3    3    0    0 -0.28709235744E+01  0.22600457122E+02 -0.83426032464E+01  0.24261531139E+02  0.00000000000E+00 0. -1.
      -12    1    3    3    0    0  0.28709235744E+01 -0.22600457122E+02 -0.16771567911E+03  0.16925593603E+03  0.00000000000E+00 0.  1.
</event>
<event>
 5   0  0.2413800E+01  0.8000690E+02  0.7957747E-01  0.1327546E+00
       -2   -1    0    0    0  501  0.00000000000E+00  0.00000000000E+00  0.14167258270E+03  0.14167258270E+03  0.00000000000E+00 0.  1.
        1   -1    0    0  501    0  0.00000000000E+00  0.00000000000E+00 -0.11295593774E+02  0.11295593774E+02  0.00000000000E+00 0. -1.
      -24    2    1    2    0    0  0.00000000000E+00  0.00000000000E+00  0.13037698893E+03  0.15296817648E+03  0.80006898280E+02 0.  0.
       11    1    3    3    0    0  0.81184446884E+01 -0.10235420254E+02 -0.71020301809E+01  0.14869828669E+02  0.00000000000E+00 0. -1.
      -12    1    3    3    0    0 -0.81184446884E+01  0.10235420254E+02  0.13747901911E+03  0.13809834781E+03  0.00000000000E+00 0.  1.
</event>
<event>
 5   0  0.2413800E+01  0.8043063E+02  0.7957747E-01  0.1326411E+00
        1   -1    0    0  501    0  0.00000000000E+00  0.00000000000E+00  0.36954324168E+02  0.36954324168E+02  0.00000000000E+00 0. -1.
       -2   -1    0    0    0  501  0.00000000000E+00  0.00000000000E+00 -0.43764070934E+02  0.43764070934E+02  0.00000000000E+00 0.  1.
      -24    2    1    2    0    0  0.00000000000E+00  0.00000000000E+00 -0.68097467662E+01  0.80718395101E+02  0.80430632577E+02 0.  0.
       11    1    3    3    0    0  0.26581276540E+02  0.76877087192E+01  0.25881832587E+02  0.37888446602E+02  0.00000000000E+00 0. -1.
      -12    1    3    3    0    0 -0.26581276540E+02 -0.76877087192E+01 -0.32691579353E+02  0.42829948499E+02  0.00000000000E+00 0.  1.
</event>
<event>
 5   0  0.2413800E+01  0.6852921E+02  0.7957747E-01  0.1361703E+00
       -4   -1    0    0    0  501  0.00000000000E+00  0.00000000000E+00  0.12276188853E+02  0.12276188853E+02  0.00000000000E+00 0.  1.
        3   -1    0    0  501    0  0.00000000000E+00  0.00000000000E+00 -0.95637421090E+02  0.95637421090E+02  0.00000000000E+00 0. -1.
      -24    2    1    2    0    0  0.00000000000E+00  0.00000000000E+00 -0.83361232237E+02  0.10791360994E+03  0.68529206699E+02 0.  0.
       11    1    3    3    0    0 -0.96385567161E+01 -0.25492900885E+02 -0.74382802404E+02  0.79218628267E+02  0.00000000000E+00 0. -1.
      -12    1    3    3    0    0  0.96385567161E+01  0.25492900885E+02 -0.89784298328E+01  0.28694981675E+02  0.00000000000E+00 0.  1.
</event>
<event>
 5   0  0.2413800E+01  0.7990871E+02  0.7957747E-01  0.1327810E+00
        1   -1    0    0  501    0  0.00000000000E+00  0.00000000000E+00  0.60438396757E+01  0.60438396757E+01  0.00000000000E+00 0. -1.
       -2   -1    0    0    0  501  0.00000000000E+00  0.00000000000E+00 -0.26412852713E+03  0.26412852713E+03  0.00000000000E+00 0.  1.
      -24    2    1    2    0    0  0.00000000000E+00  0.00000000000E+00 -0.25808468746E+03  0.27017236681E+03  0.79908709707E+02 0.  0.
       11    1    3    3    0    0  0.57487505445E+00  0.36891074329E+02 -0.18087985503E+03  0.18460445228E+03  0.00000000000E+00 0. -1.
      -12    1    3    3    0    0 -0.57487505445E+00 -0.36891074329E+02 -0.77204832433E+02  0.85567914533E+02  0.00000000000E+00 0.  1.
</event>
<event>
 5   0  0.2413800E+01  0.7966422E+02  0.7957747E-01  0.1328470E+00
        1   -1    0    0  501    0  0.00000000000E+00  0.00000000000E+00  0.59351758722E+03  0.59351758722E+03  0.00000000000E+00 0. -1.
       -2   -1    0    0    0  501  0.00000000000E+00  0.00000000000E+00 -0.26732098891E+01  0.26732098891E+01  0.00000000000E+00 0.  1.
      -24    2    1    2    0    0  0.00000000000E+00  0.00000000000E+00  0.59084437733E+03  0.59619079711E+03  0.79664222421E+02 0.  0.
       11    1    3    3    0    0  0.34482299195E+02  0.29419894480E+01  0.14783519774E+03  0.15183191347E+03  0.00000000000E+00 0. -1.
      -12    1    3    3    0    0 -0.34482299195E+02 -0.29419894480E+01  0.44300917959E+03  0.44435888363E+03  0.00000000000E+00 0.  1.
</event>
<event>
 5   0  0.2413800E+01  0.7987572E+02  0.7957747E-01  0.1327899E+00
       -4   -1    0    0    0  501  0.00000000000E+00  0.00000000000E+00  0.16586934768E+02  0.16586934768E+02  0.00000000000E+00 0.  1.
        3   -1    0    0  501    0  0.00000000000E+00  0.00000000000E+00 -0.96161980982E+02  0.96161980982E+02  0.00000000000E+00 0. -1.
      -24    2    1    2    0    0  0.00000000000E+00  0.00000000000E+00 -0.79575046215E+02  0.11274891575E+03  0.79875716102E+02 0.  0.
       11    1    3    3    0    0 -0.26722439844E+02 -0.23205340048E+02 -0.13665913126E+02  0.37938552681E+02  0.00000000000E+00 0. -1.
      -12    1    3    3    0    0  0.26722439844E+02  0.23205340048E+02 -0.65909133088E+02  0.74810363069E+02  0.00000000000E+00 0.  1.
</event>
<event>
 5   0  0.2413800E+01  0.8019949E+02  0.7957747E-01  0.1327029E+00
        3   -1    0    0  501    0  0.00000000000E+00  0.00000000000E+00  0.40945693725E+02  0.40945693725E+02  0.00000000000E+00 0. -1.
       -4   -1    0    0    0  501  0.00000000000E+00  0.00000000000E+00 -0.39271277087E+02  0.39271277087E+02  0.00000000000E+00 0.  1.
      -24    2    1    2    0    0  0.00000000000E+00  0.00000000000E+00  0.16744166371E+01  0.80216970812E+02  0.80199493360E+02 0.  0.
       11    1    3    3    0    0 -0.10852251420E+02 -0.42825238338E+01  0.39210635319E+02  0.40909476816E+02  0.00000000000E+00 0. -1.
      -12    1    3    3    0    0  0.10852251420E+02  0.42825238338E+01 -0.37536218682E+02  0.39307493996E+02  0.00000000000E+00 0.  1.
</event>
<event>
 5   0  0.2413800E+01  0.7414424E+02  0.7957747E-01  0.1344115E+00
        3   -1    0    0  501    0  0.00000000000E+00  0.00000000000E+00  0.27600143535E+03  0.27600143535E+03  0.00000000000E+00 0. -1.
       -4   -1    0    0    0  501  0.00000000000E+00  0.00000000000E+00 -0.49794739430E+01  0.49794739430E+01  0.00000000000E+00 0.  1.
      -24    2    1    2    0    0  0.00000000000E+00  0.00000000000E+00  0.27102196140E+03  0.28098090929E+03  0.74144236608E+02 0.  0.
       11    1    3    3    0    0 -0.73627813369E+01  0.35435038451E+02  0.16594391119E+03  0.16984473545E+03  0.00000000000E+00 0. -1.
      -12    1    3    3    0    0  0.73627813369E+01 -0.35435038451E+02  0.10507805022E+03  0.11113617384E+03  0.00000000000E+00 0.  1.
</event>
<event>
 5   0  0.2413800E+01  0.8056595E+02  0.7957747E-01  0.1326051E+00
       -2   -1    0    0    0  501  0.00000000000E+00  0.00000000000E+00  0.17623975082E+03  0.17623975082E+03  0.00000000000E+00 0.  1.
        1   -1    0    0  501    0  0.00000000000E+00  0.00000000000E+00 -0.92074467131E+01  0.92074467131E+01  0.00000000000E+00 0. -1.
      -24    2    1    2    0    0  0.00000000000E+00  0.00000000000E+00  0.16703230410E+03  0.18544719753E+03  0.80565950981E+02 0.  0.
       11    1    3    3    0    0  0.82319176292E+01 -0.32638289831E+02  0.32579326601E+02  0.46844796431E+02  0.00000000000E+00 0. -1.
      -12    1    3    3    0    0 -0.82319176292E+01  0.32638289831E+02  0.13445297750E+03  0.13860240110E+03  0.00000000000E+00 0.  1.
</event>
<event>
 5   0  0.2413800E+01  0.7860607E+02  0.7957747E-01  0.1331356E+00
       -4   -1    0    0    0  501  0.00000000000E+00  0.00000000000E+00  0.79513938039E+02  0.79513938039E+02  0.00000000000E+00 0.  1.
        3   -1    0    0  501    0  0.00000000000E+00  0.00000000000E+00 -0.19427141073E+02  0.19427141073E+02  0.00000000000E+00 0. -1.
      -24    2    1    2    0    0  0.00000000000E+00  0.00000000000E+00  0.60086796966E+02  0.98941079111E+02  0.78606068252E+02 0.  0.
       11    1    3    3    0    0  0.22752856112E+02  0.31926703978E+02  0.26545764878E+02  0.47346430923E+02  0.00000000000E+00 0. -1.
      -12    1    3    3    0    0 -0.22752856112E+02 -0.31926703978E+02  0.33541032088E+02  0.51594648188E+02  0.00000000000E+00 0.  1.
</event>
<event>
 5   0  0.2413800E+01  0.7985650E+02  0.7957747E-01  0.1327951E+00
        1   -1    0    0  501    0  0.00000000000E+00  0.00000000000E+00  0.11061006231E+03  0.11061006231E+03  0.00000000000E+00 0. -1.
       -2   -1    0    0    0  501  0.00000000000E+00  0.00000000000E+00 -0.14413383237E+02  0.14413383237E+02  0.00000000000E+00 0.  1.
      -24    2    1    2    0    0  0.00000000000E+00  0.00000000000E+00  0.96196679069E+02  0.12502344554E+03  0.79856501750E+02 0.  0.
       11    1    3    3    0    0  0.24650827469E+02 -0.78008411207E+01  0.95733514128E+02  0.99163613006E+02  0.00000000000E+00 0. -1.
      -12    1    3    3    0    0 -0.24650827469E+02  0.78008411207E+01  0.46316494084E+00  0.25859832538E+02  0.00000000000E+00 0.  1.
</event>
<event>
 5   0  0.2413800E+01  0.8088443E+02  0.7957747E-01  0.1325205E+00
       -2   -1    0    0    0  501  0.00000000000E+00  0.00000000000E+00  0.38017133613E+03  0.38017133613E+03  0.00000000000E+00 0.  1.
        1   -1    0    0  501    0  0.00000000000E+00  0.00000000000E+00 -0.43021988875E+01  0.43021988875E+01  0.00000000000E+00 0. -1.
      -24    2    1    2    0    0  0.00000000000E+00  0.00000000000E+00  0.37586913724E+03  0.38447353502E+03  0.80884428646E+02 0.  0.
       11    1    3    3    0    0 -0.11251482905E+02 -0.21604975172E+02  0.34480836685E+02  0.42217282222E+02  0.00000000000E+00 0. -1.
      -12    1    3    3    0    0  0.11251482905E+02  0.21604975172E+02  0.34138830056E+03  0.34225625280E+03  0.00000000000E+00 0.  1.
</event>
<event>
 5   0  0.2413800E+01  0.8036485E+02  0.7957747E-01  0.1326587E+00
        1   -1    0    0  501    0  0.00000000000E+00  0.00000000000E+00  0.25606005074E+03  0.25606005074E+03  0.00000000000E+00 0. -1.
       -2   -1    0    0    0  501  0.00000000000E+00  0.00000000000E+00 -0.63056580345E+01  0.63056580345E+01  0.00000000000E+00 0.  1.
      -24    2    1    2    0    0  0.00000000000E+00  0.00000000000E+00  0.24975439271E+03  0.26236570877E+03  0.80364845953E+02 0.  0.
       11    1    3    3    0    0 -0.96361169250E+01  0.34822622718E+02  0.18227968458E+03  0.18582613705E+03  0.00000000000E+00 0. -1.
      -12    1    3    3    0    0  0.96361169250E+01 -0.34822622718E+02  0.67474708127E+02  0.76539571721E+02  0.00000000000E+00 0.  1.
</event>
<event>
 5   0  0.2413800E+01  0.8229816E+02  0.7957747E-01  0.1321502E+00
       -2   -1    0    0    0  501  0.00000000000E+00  0.00000000000E+00  0.59844051824E+03  0.59844051824E+03  0.00000000000E+00 0.  1.
        1   -1    0    0  501    0  0.00000000000E+00  0.00000000000E+00 -0.28294322894E+01  0.28294322894E+01  0.00000000000E+00 0. -1.
      -24    2    1    2    0    0  0.00000000000E+00  0.00000000000E+00  0.59561108596E+03  0.60126995053E+03  0.82298163421E+02 0.  0.
       11    1    3    3    0    0 -0.35890850486E+02 -0.81754052251E+00  0.15087957165E+03  0.15509180075E+03  0.00000000000E+00 0. -1.
      -12    1    3    3    0    0  0.35890850486E+02  0.81754052251E+00  0.44473151431E+03  0.44617814978E+03  0.00000000000E+00 0.  1.
</event>
<event>
 5   0  0.2413800E+01  0.8083420E+02  0.7957747E-01  0.1325338E+00
        1   -1    0    0  501    0  0.00000000000E+00  0.00000000000E+00  0.22512127438E+02  0.22512127438E+02  0.00000000000E+00 0. -1.
       -2   -1    0    0    0  501  0.00000000000E+00  0.00000000000E+00 -0.72562753123E+02  0.72562753123E+02  0.00000000000E+00 0.  1.
      -24    2    1    2    0    0  0.00000000000E+00  0.00000000000E+00 -0.50050625685E+02  0.95074880561E+02  0.80834199335E+02 0.  0.
       11    1    3    3    0    0 -0.28949189085E+02 -0.25703580492E+02 -0.11368936332E+02  0.40348262814E+02  0.00000000000E+00 0. -1.
      -12    1    3    3    0    0  0.28949189085E+02  0.25703580492E+02 -0.38681689353E+02  0.54726617747E+02  0.00000000000E+00 0.  1.
</event>
<event>
 5   0  0.2413800E+01  0.8147585E+02  0.7957747E-01  0.1323645E+00
       -2   -1    0    0    0  501  0.00000000000E+00  0.00000000000E+00  0.21497096817E+03  0.21497096817E+03  0.00000000000E+00 0.  1.
        1   -1    0    0  501    0  0.00000000000E+00  0.00000000000E+00 -0.77200127976E+01  0.77200127976E+01  0.00000000000E+00 0. -1.
      -24    2    1    2    0    0  0.00000000000E+00  0.00000000000E+00  0.20725095537E+03  0.22269098097E+03  0.81475852260E+02 0.  0.
       11    1    3    3    0    0  0.31689703223E+02 -0.18374846880E+02  0.54907791325E+02  0.66005589433E+02  0.00000000000E+00 0. -1.
      -12    1    3    3    0    0 -0.31689703223E+02  0.18374846880E+02  0.15234316405E+03  0.15668539153E+03  0.00000000000E+00 0.  1.
</event>
<event>
 5   0  0.2413800E+01  0.7953181E+02  0.7957747E-01  0.1328828E+00
        1   -1    0    0  501    0  0.00000000000E+00  0.00000000000E+00  0.53661994141E+02  0.53661994141E+02  0.00000000000E+00 0. -1.
       -2   -1    0    0    0  501  0.00000000000E+00  0.00000000000E+00 -0.29468287662E+02  0.29468287662E+02  0.00000000000E+00 0.  1.
      -24    2    1    2    0    0  0.00000000000E+00  0.00000000000E+00  0.24193706479E+02  0.83130281803E+02  0.79531806967E+02 0.  0.
       11    1    3    3    0    0 -0.37976028280E+02  0.61101243071E+01  0.15499800422E+01  0.38495646262E+02  0.00000000000E+00 0. -1.
      -12    1    3    3    0    0  0.37976028280E+02 -0.61101243071E+01  0.22643726437E+02  0.44634635542E+02  0.00000000000E+00 0.  1.
</event>
<event>
 5   0  0.2413800E+01  0.7997375E+02  0.7957747E-01  0.1327635E+00
       -2   -1    0    0    0  501  0.00000000000E+00  0.00000000000E+00  0.30088029975E+03  0.30088029975E+03  0.00000000000E+00 0.  1.
        1   -1    0    0  501    0  0.00000000000E+00  0.00000000000E+00 -0.53142397445E+01  0.53142397445E+01  0.00000000000E+00 0. -1.
      -24    2    1    2    0    0  0.00000000000E+00  0.00000000000E+00  0.29556606001E+03  0.30619453950E+03  0.79973746874E+02 0.  0.
       11    1    3    3    0    0 -0.33956627679E+02  0.94121548388E+01  0.75410814250E+02  0.83237203989E+02  0.00000000000E+00 0. -1.
      -12    1    3    3    0    0  0.33956627679E+02 -0.94121548388E+01  0.22015524576E+03  0.22295733551E+03  0.00000000000E+00 0.  1.
</event>
<event>
 5   0  0.2413800E+01  0.8070914E+02  0.7957747E-01  0.1325670E+00
        1   -1    0    0  501    0  0.00000000000E+00  0.00000000000E+00  0.68958452605E+01  0.68958452605E+01  0.00000000000E+00 0. -1.
       -2   -1    0    0    0  501  0.00000000000E+00  0.00000000000E+00 -0.23615541500E+03  0.23615541500E+03  0.00000000000E+00 0.  1.
      -24    2    1    2    0    0  0.00000000000E+00  0.00000000000E+00 -0.22925956974E+03  0.24305126026E+03  0.80709137010E+02 0.  0.
       11    1    3    3    0    0 -0.19712929958E+02 -0.10305552119E+02 -0.13233558368E+02  0.25883026853E+02  0.00000000000E+00 0. -1.
      -12    1    3    3    0    0  0.19712929958E+02  0.10305552119E+02 -0.21602601137E+03  0.21716823340E+03  0.00000000000E+00 0.  1.
</event>
<event>
 5   0  0.2413800E+01  0.7849915E+02  0.7957747E-01  0.1331650E+00
        3   -1    0    0  501    0  0.00000000000E+00  0.00000000000E+00  0.78957245078E+02  0.78957245078E+02  0.00000000000E+00 0. -1.
       -4   -1    0    0    0  501  0.00000000000E+00  0.00000000000E+00 -0.19510926621E+02  0.19510926621E+02  0.00000000000E+00 0.  1.
      -24    2    1    2    0    0  0.00000000000E+00  0.00000000000E+00  0.59446318457E+02  0.98468171699E+02  0.78499146872E+02 0.  0.
       11    1    3    3    0    0 -0.13904242449E+02 -0.20308277739E+02  0.68074845271E+02  0.72387420602E+02  0.00000000000E+00 0. -1.
      -12    1    3    3    0    0  0.13904242449E+02  0.20308277739E+02 -0.86285268133E+01  0.26080751097E+02  0.00000000000E+00 0.  1.
</event>
<event>
 5   0  0.2413800E+01  0.7668831E+02  0.7957747E-01  0.1336719E+00
        1   -1    0    0  501    0  0.00000000000E+00  0.00000000000E+00  0.14541818181E+03  0.14541818181E+03  0.00000000000E+00 0. -1.
       -2   -1    0    0    0  501  0.00000000000E+00  0.00000000000E+00 -0.10110664080E+02  0.10110664080E+02  0.00000000000E+00 0.  1.
      -24    2    1    2    0    0  0.00000000000E+00  0.00000000000E+00  0.13530751773E+03  0.15552884589E+03  0.76688314296E+02 0.  0.
       11    1    3    3    0    0 -0.18528837581E+02  0.31682200760E+02  0.45143639098E+02  0.58180991897E+02  0.00000000000E+00 0. -1.
      -12    1    3    3    0    0  0.18528837581E+02 -0.31682200760E+02  0.90163878628E+02  0.97347853989E+02  0.00000000000E+00 0.  1.
</event>
<event>
 5   0  0.2413800E+01  0.8007479E+02  0.7957747E-01  0.1327364E+00
       -2   -1    0    0    0  501  0.00000000000E+00  0.00000000000E+00  0.20518559848E+03  0.20518559848E+03  0.00000000000E+00 0.  1.
        1   -1    0    0  501    0  0.00000000000E+00  0.00000000000E+00 -0.78124048968E+01  0.78124048968E+01  0.00000000000E+00 0. -1.
      -24    2    1    2    0    0  0.00000000000E+00  0.00000000000E+00  0.19737319359E+03  0.21299800338E+03  0.80074789400E+02 0.  0.
       11    1    3    3    0    0  0.22062807082E+02  0.30002698341E+02  0.59587156401E+02  0.70267763391E+02  0.00000000000E+00 0. -1.
      -12    1    3    3    0    0 -0.22062807082E+02 -0.30002698341E+02  0.13778603719E+03  0.14273023999E+03  0.00000000000E+00 0.  1.
</event>
<event>
 5   0  0.2413800E+01  0.8082676E+02  0.7957747E-01  0.1325357E+00
       -2   -1    0    0    0  501  0.00000000000E+00  0.00000000000E+00  0.14972727044E+03  0.14972727044E+03  0.00000000000E+00 0.  1.
        1   -1    0    0  501    0  0.00000000000E+00  0.00000000000E+00 -0.10908107391E+02  0.10908107391E+02  0.00000000000E+00 0. -1.
      -24    2    1    2    0    0  0.00000000000E+00  0.00000000000E+00  0.13881916305E+03  0.16063537783E+03  0.80826756591E+02 0.  0.
       11    1    3    3    0    0 -0.23894643559E+01  0.24698123772E+02  0.60137688423E+01  0.25531789469E+02  0.00000000000E+00 0. -1.
      -12    1    3    3    0    0  0.23894643559E+01 -0.24698123772E+02  0.13280539421E+03  0.13510358836E+03  0.00000000000E+00 0.  1.
</event>
<event>
 5   0  0.2413800E+01  0.8053705E+02  0.7957747E-01  0.1326128E+00
        1   -1    0    0  501    0  0.00000000000E+00  0.00000000000E+00  0.47713771361E+02  0.47713771361E+02  0.00000000000E+00 0. -1.
       -2   -1    0    0    0  501  0.00000000000E+00  0.00000000000E+00 -0.33985034553E+02  0.33985034553E+02  0.00000000000E+00 0.  1.
      -24    2    1    2    0    0  0.00000000000E+00  0.00000000000E+00  0.13728736808E+02  0.81698805915E+02  0.80537051557E+02 0.  0.
       11    1    3    3    0    0  0.12374063770E+02 -0.15656808147E+01  0.45704867260E+02  0.47376193408E+02  0.00000000000E+00 0. -1.
      -12    1    3    3    0    0 -0.12374063770E+02  0.15656808147E+01 -0.31976130452E+02  0.34322612506E+02  0.00000000000E+00 0.  1.
</event>
<event>
 5   0  0.2413800E+01  0.7847778E+02  0.7957747E-01  0.1331709E+00
        1   -1    0    0  501    0  0.00000000000E+00  0.00000000000E+00  0.25880402005E+02  0.25880402005E+02  0.00000000000E+00 0. -1.
       -2   -1    0    0    0  501  0.00000000000E+00  0.00000000000E+00 -0.59492531823E+02  0.59492531823E+02  0.00000000000E+00 0.  1.
      -24    2    1    2    0    0  0.00000000000E+00  0.00000000000E+00 -0.33612129817E+02  0.85372933828E+02  0.78477783860E+02 0.  0.
       11    1    3    3    0    0  0.14170578983E+02 -0.47418388883E+01  0.22663965517E+02  0.27146743409E+02  0.00000000000E+00 0. -1.
      -12    1    3    3    0    0 -0.14170578983E+02  0.47418388883E+01 -0.56276095334E+02  0.58226190419E+02  0.00000000000E+00 0.  1.
</event>
<event>
 5   0  0.2413800E+01  0.8088531E+02  0.7957747E-01  0.1325202E+00
       -4   -1    0    0    0  501  0.00000000000E+00  0.00000000000E+00  0.92000449547E+02  0.92000449547E+02  0.00000000000E+00 0.  1.
        3   -1    0    0  501    0  0.00000000000E+00  0.00000000000E+00 -0.17778266879E+02  0.17778266879E+02  0.00000000000E+00 0. -1.
      -24    2    1    2    0    0  0.00000000000E+00  0.00000000000E+00  0.74222182668E+02  0.10977871643E+03  0.80885314984E+02 0.  0.
       11    1    3    3    0    0 -0.27902764454E+02 -0.26319039015E+02  0.19711598879E+02  0.43125435757E+02  0.00000000000E+00 0. -1.
      -12    1    3    3    0    0  0.27902764454E+02  0.26319039015E+02  0.54510583789E+02  0.66653280669E+02  0.00000000000E+00 0.  1.
</event>
<event>
 5   0  0.2413800E+01  0.7912850E+02  0.7957747E-01  0.1329925E+00
        1   -1    0    0  501    0  0.00000000000E+00  0.00000000000E+00  0.12058093028E+03  0.12058093028E+03  0.00000000000E+00 0. -1.
       -2   -1    0    0    0  501  0.00000000000E+00  0.00000000000E+00 -0.12981569858E+02  0.12981569858E+02  0.00000000000E+00 0.  1.
      -24    2    1    2    0    0  0.00000000000E+00  0.00000000000E+00  0.10759936042E+03  0.13356250013E+03  0.79128497266E+02 0.  0.
       11    1    3    3    0    0 -0.26795901435E+02  0.27869343045E+02  0.67983138214E+02  0.78207593601E+02  0.00000000000E+00 0. -1.
      -12    1    3    3    0    0  0.26795901435E+02 -0.27869343045E+02  0.39616222204E+02  0.55354906532E+02  0.00000000000E+00 0.  1.
</event>
<event>
 5   0  0.2413800E+01  0.8027133E+02  0.7957747E-01  0.1326837E+00
        1   -1    0    0  501    0  0.00000000000E+00  0.00000000000E+00  0.29557797335E+03  0.29557797335E+03  0.00000000000E+00 0. -1.
       -2   -1    0    0    0  501  0.00000000000E+00  0.00000000000E+00 -0.54499040566E+01  0.54499040566E+01  0.00000000000E+00 0.  1.
      -24    2    1    2    0    0  0.00000000000E+00  0.00000000000E+00  0.29012806929E+03  0.30102787741E+03  0.80271329776E+02 0.  0.
       11    1    3    3    0    0 -0.37105132265E+02  0.84593817664E+01  0.19287187793E+03  0.19659072530E+03  0.00000000000E+00 0. -1.
      -12    1    3    3    0    0  0.37105132265E+02 -0.84593817664E+01  0.97256191366E+02  0.10443715210E+03  0.00000000000E+00 0.  1.
</event>
<event>
 5   0  0.2413800E+01  0.8247409E+02  0.7957747E-01  0.1321047E+00
       -2   -1    0    0    0  501  0.00000000000E+00  0.00000000000E+00  0.11622129939E+02  0.11622129939E+02  0.00000000000E+00 0.  1.
        1   -1    0    0  501    0  0.00000000000E+00  0.00000000000E+00 -0.14631516944E+03  0.14631516944E+03  0.00000000000E+00 0. -1.
      -24    2    1    2    0    0  0.00000000000E+00  0.00000000000E+00 -0.13469303950E+03  0.15793729938E+03  0.82474090751E+02 0.  0.
       11    1    3    3    0    0 -0.16661579914E+02  0.23529774214E+02 -0.12380586945E+03  0.12711865256E+03  0.00000000000E+00 0. -1.
      -12    1    3    3    0    0  0.16661579914E+02 -0.23529774214E+02 -0.10887170053E+02  0.30818646816E+02  0.00000000000E+00 0.  1.
</event>
<event>
 5   0  0.2413800E+01  0.8412416E+02  0.7957747E-01  0.1316842E+00
       -2   -1    0    0    0  501  0.00000000000E+00  0.00000000000E+00  0.55598381976E+02  0.55598381976E+02  0.00000000000E+00 0.  1.
        1   -1    0    0  501    0  0.00000000000E+00  0.00000000000E+00 -0.31821405533E+02  0.31821405533E+02  0.00000000000E+00 0. -1.
      -24    2    1    2    0    0  0.00000000000E+00  0.00000000000E+00  0.23776976443E+02  0.87419787508E+02  0.84124162042E+02 0.  0.
       11    1    3    3    0    0 -0.14503145500E+02 -0.36727940992E+02 -0.31682960402E+01  0.39614656110E+02  0.00000000000E+00 0. -1.
      -12    1    3    3    0    0  0.14503145500E+02  0.36727940992E+02  0.26945272483E+02  0.47805131399E+02  0.00000000000E+00 0.  1.
</event>
<event>
 5   0  0.2413800E+01  0.7977526E+02  0.7957747E-01  0.1328170E+00
       -2   -1    0    0    0  501  0.00000000000E+00  0.00000000000E+00  0.26724223991E+02  0.26724223991E+02  0.00000000000E+00 0.  1.
        1   -1    0    0  501    0  0.00000000000E+00  0.00000000000E+00 -0.59534856883E+02  0.59534856883E+02  0.00000000000E+00 0. -1.
      -24    2    1    2    0    0  0.00000000000E+00  0.00000000000E+00 -0.32810632892E+02  0.86259080874E+02  0.79775255577E+02 0.  0.
       11    1    3    3    0    0 -0.18332987711E+02 -0.22190775676E+02  0.13452277342E+02  0.31772515311E+02  0.00000000000E+00 0. -1.
      -12    1    3    3    0    0  0.18332987711E+02  0.22190775676E+02 -0.46262910234E+02  0.54486565563E+02  0.00000000000E+00 0.  1.
</event>
<event>
 5   0  0.2413800E+01  0.8019285E+02  0.7957747E-01  0.1327047E+00
        1   -1    0    0  501    0  0.00000000000E+00  0.00000000000E+00  0.15047594261E+03  0.15047594261E+03  0.00000000000E+00 0. -1.
       -2   -1    0    0    0  501  0.00000000000E+00  0.00000000000E+00 -0.10684255732E+02  0.10684255732E+02  0.00000000000E+00 0.  1.
      -24    2    1    2    0    0  0.00000000000E+00  0.00000000000E+00  0.13979168687E+03  0.16116019834E+03  0.80192853855E+02 0.  0.
       11    1    3    3    0    0  0.16640949630E+02 -0.21077021843E+02  0.12973376951E+03  0.13248401038E+03  0.00000000000E+00 0. -1.
      -12    1    3    3    0    0 -0.16640949630E+02  0.21077021843E+02  0.10057917365E+02  0.28676187962E+02  0.00000000000E+00 0.  1.
</event>
<event>
 5   0  0.2413800E+01  0.8118341E+02  0.7957747E-01  0.1324414E+00
       -2   -1    0    0    0  501  0.00000000000E+00  0.00000000000E+00  0.74828164048E+02  0.74828164048E+02  0.00000000000E+00 0.  1.
        1   -1    0    0  501    0  0.00000000000E+00  0.00000000000E+00 -0.22019603339E+02  0.22019603339E+02  0.00000000000E+00 0. -1.
      -24    2    1    2    0    0  0.00000000000E+00  0.00000000000E+00  0.52808560709E+02  0.96847767387E+02  0.81183409411E+02 0.  0.
       11    1    3    3    0    0 -0.67581775851E+01  0.38643259946E+02  0.38842580857E+02  0.55206164431E+02  0.00000000000E+00 0. -1.
      -12    1    3    3    0    0  0.67581775851E+01 -0.38643259946E+02  0.13965979853E+02  0.41641602956E+02  0.00000000000E+00 0.  1.
</event>
<event>
 5   0  0.2413800E+01  0.8008973E+02  0.7957747E-01  0.1327324E+00
        1   -1    0    0  501    0  0.00000000000E+00  0.00000000000E+00  0.13094592149E+02  0.13094592149E+02  0.00000000000E+00 0. -1.
       -2   -1    0    0    0  501  0.00000000000E+00  0.00000000000E+00 -0.12246210707E+03  0.12246210707E+03  0.00000000000E+00 0.  1.
      -24    2    1    2    0    0  0.00000000000E+00  0.00000000000E+00 -0.10936751492E+03  0.13555669922E+03  0.80089733318E+02 0.  0.
       11    1    3    3    0    0  0.68748011840E+01 -0.34300913556E+02 -0.21699419470E+02  0.41166495691E+02  0.00000000000E+00 0. -1.
      -12    1    3    3    0    0 -0.68748011840E+01  0.34300913556E+02 -0.87668095448E+02  0.94390203525E+02  0.00000000000E+00 0.  1.
</event>
<event>
 5   0  0.2413800E+01  0.8172635E+02  0.7957747E-01  0.1322989E+00
       -4   -1    0    0    0  501  0.00000000000E+00  0.00000000000E+00  0.15304343571E+02  0.15304343571E+02  0.00000000000E+00 0.  1.
        3   -1    0    0  501    0  0.00000000000E+00  0.00000000000E+00 -0.10910622391E+03  0.10910622391E+03  0.00000000000E+00 0. -1.
      -24    2    1    2    0    0  0.00000000000E+00  0.00000000000E+00 -0.93801880337E+02  0.12441056748E+03  0.81726351598E+02 0.  0.
       11    1    3    3    0    0  0.40531599261E+02  0.31866861184E+01 -0.40655198183E+02  0.57496179407E+02  0.00000000000E+00 0. -1.
      -12    1    3    3    0    0 -0.40531599261E+02 -0.31866861184E+01 -0.53146682154E+02  0.66914388072E+02  0.00000000000E+00 0.  1.
</event>
<event>
 5   0  0.2413800E+01  0.8045584E+02  0.7957747E-01  0.1326344E+00
       -2   -1    0    0    0  501  0.00000000000E+00  0.00000000000E+00  0.38673639008E+01  0.38673639008E+01  0.00000000000E+00 0.  1.
        1   -1    0    0  501    0  0.00000000000E+00  0.00000000000E+00 -0.41844666865E+03  0.41844666865E+03  0.00000000000E+00 0. -1.
      -24    2    1    2    0    0  0.00000000000E+00  0.00000000000E+00 -0.41457930475E+03  0.42231403255E+03  0.80455839832E+02 0.  0.
       11    1    3    3    0    0 -0.27171394636E+02 -0.29237462597E+02 -0.23362467247E+03  0.23700970759E+03  0.00000000000E+00 0. -1.
      -12    1    3    3    0    0  0.27171394636E+02  0.29237462597E+02 -0.18095463228E+03  0.18530432496E+03  0.00000000000E+00 0.  1.
</event>
<event>
 5   0  0.2413800E+01  0.8130201E+02  0.7957747E-01  0.1324102E+00
       -2   -1    0    0    0  501  0.00000000000E+00  0.00000000000E+00  0.33282187784E+02  0.33282187784E+02  0.00000000000E+00 0.  1.
        1   -1    0    0  501    0  0.00000000000E+00  0.00000000000E+00 -0.49651314064E+02  0.49651314064E+02  0.00000000000E+00 0. -1.
      -24    2    1    2    0    0  0.00000000000E+00  0.00000000000E+00 -0.16369126280E+02  0.82933501848E+02  0.81302013711E+02 0.  0.
       11    1    3    3    0    0 -0.78362648246E+01 -0.20522743019E+02 -0.43074945733E+02  0.48353293345E+02  0.00000000000E+00 0. -1.
      -12    1    3    3    0    0  0.78362648246E+01  0.20522743019E+02  0.26705819453E+02  0.34580208502E+02  0.00000000000E+00 0.  1.
</event>
<event>
 5   0  0.2413800E+01  0.8148748E+02  0.7957747E-01  0.1323615E+00
        1   -1    0    0  501    0  0.00000000000E+00  0.00000000000E+00  0.82147092354E+02  0.82147092354E+02  0.00000000000E+00 0. -1.
       -2   -1    0    0    0  501  0.00000000000E+00  0.00000000000E+00 -0.20208292691E+02  0.20208292691E+02  0.00000000000E+00 0.  1.
      -24    2    1    2    0    0  0.00000000000E+00  0.00000000000E+00  0.61938799663E+02  0.10235538505E+03  0.81487483358E+02 0.  0.
       11    1    3    3    0    0 -0.11095096489E+02  0.38068839867E+02  0.19205370230E+02  0.44058869488E+02  0.00000000000E+00 0. -1.
      -12    1    3    3    0    0  0.11095096489E+02 -0.38068839867E+02  0.42733429433E+02  0.58296515557E+02  0.00000000000E+00 0.  1.
</event>
<event>
 5   0  0.2413800E+01  0.8162972E+02  0.7957747E-01  0.1323242E+00
       -2   -1    0    0    0  501  0.00000000000E+00  0.00000000000E+00  0.27432940987E+02  0.27432940987E+02  0.00000000000E+00 0.  1.
        1   -1    0    0  501    0  0.00000000000E+00  0.00000000000E+00 -0.60724546668E+02  0.60724546668E+02  0.00000000000E+00 0. -1.
      -24    2    1    2    0    0  0.00000000000E+00  0.00000000000E+00 -0.33291605681E+02  0.88157487655E+02  0.81629722655E+02 0.  0.
       11    1    3    3    0    0 -0.14969126126E+01  0.36492876131E+02  0.30286576103E+01  0.36648922530E+02  0.00000000000E+00 0. -1.
      -12    1    3    3    0    0  0.14969126126E+01 -0.36492876131E+02 -0.36320263292E+02  0.51508565125E+02  0.00000000000E+00 0.  1.
</event>
<event>
 5   0  0.2413800E+01  0.7999545E+02  0.7957747E-01  0.1327577E+00
       -2   -1    0    0    0  501  0.00000000000E+00  0.00000000000E+00  0.28190877556E+02  0.28190877556E+02  0.00000000000E+00 0.  1.
        1   -1    0    0  501    0  0.00000000000E+00  0.00000000000E+00 -0.56749489781E+02  0.56749489781E+02  0.00000000000E+00 0. -1.
      -24    2    1    2    0    0  0.00000000000E+00  0.00000000000E+00 -0.28558612226E+02  0.84940367337E+02  0.79995447815E+02 0.  0.
       11    1    3    3    0    0  0.39673699471E+01 -0.28161903254E+02 -0.44142277066E+02  0.52510698374E+02  0.00000000000E+00 0. -1.
      -12    1    3    3    0    0 -0.39673699471E+01  0.28161903254E+02  0.15583664841E+02  0.32429668963E+02  0.00000000000E+00 0.  1.
</event>
<event>
 5   0  0.2413800E+01  0.7707295E+02  0.7957747E-01  0.1335629E+00
        1   -1    0    0  501    0  0.00000000000E+00  0.00000000000E+00  0.20395734415E+02  0.20395734415E+02  0.00000000000E+00 0. -1.
       -2   -1    0    0    0  501  0.00000000000E+00  0.00000000000E+00 -0.72812283301E+02  0.72812283301E+02  0.00000000000E+00 0.  1.
      -24    2    1    2    0    0  0.00000000000E+00  0.00000000000E+00 -0.52416548886E+02  0.93208017715E+02  0.77072952255E+02 0.  0.
       11    1    3    3    0    0  0.10464483232E+02  0.15323198515E+02  0.14637516436E+02  0.23633931316E+02  0.00000000000E+00 0. -1.
      -12    1    3    3    0    0 -0.10464483232E+02 -0.15323198515E+02 -0.67054065322E+02  0.69574086399E+02  0.00000000000E+00 0.  1.
</event>
<event>
 5   0  0.2413800E+01  0.7927164E+02  0.7957747E-01  0.1329535E+00
        1   -1    0    0  501    0  0.00000000000E+00  0.00000000000E+00  0.38023169157E+02  0.38023169157E+02  0.00000000000E+00 0. -1.
       -2   -1    0    0    0  501  0.00000000000E+00  0.00000000000E+00 -0.41316866683E+02  0.41316866683E+02  0.00000000000E+00 0.  1.
      -24    2    1    2    0    0  0.00000000000E+00  0.00000000000E+00 -0.32936975261E+01  0.79340035840E+02  0.79271639592E+02 0.  0.
       11    1    3    3    0    0 -0.12960091339E+02  0.92689307372E+01  0.34676628407E+02  0.38162096407E+02  0.00000000000E+00 0. -1.
      -12    1    3    3    0    0  0.12960091339E+02 -0.92689307372E+01 -0.37970325933E+02  0.41177939433E+02  0.00000000000E+00 0.  1.
</event>
<event>
 5   0  0.2413800E+01  0.7876559E+02  0.7957747E-01  0.1330917E+00
        1   -1    0    0  501    0  0.00000000000E+00  0.00000000000E+00  0.30958237400E+03  0.30958237400E+03  0.00000000000E+00 0. -1.
       -2   -1    0    0    0  501  0.00000000000E+00  0.00000000000E+00 -0.50099903938E+01  0.50099903938E+01  0.00000000000E+00 0.  1.
      -24    2    1    2    0    0  0.00000000000E+00  0.00000000000E+00  0.30457238361E+03  0.31459236440E+03  0.78765594516E+02 0.  0.
       11    1    3    3    0    0 -0.22538245800E+01 -0.38624029879E+02  0.18166590974E+03  0.18574013614E+03  0.00000000000E+00 0. -1.
      -12    1    3    3    0    0  0.22538245800E+01  0.38624029879E+02  0.12290647386E+03  0.12885222826E+03  0.00000000000E+00 0.  1.
</event>
<event>
 5   0  0.2413800E+01  0.7566086E+02  0.7957747E-01  0.1339666E+00
       -2   -1    0    0    0  501  0.00000000000E+00  0.00000000000E+00  0.24484760073E+03  0.24484760073E+03  0.00000000000E+00 0.  1.
        1   -1    0    0  501    0  0.00000000000E+00  0.00000000000E+00 -0.58450292367E+01  0.58450292367E+01  0.00000000000E+00 0. -1.
      -24    2    1    2    0    0  0.00000000000E+00  0.00000000000E+00  0.23900257149E+03  0.25069262997E+03  0.75660858700E+02 0.  0.
       11    1    3    3    0    0  0.58690515776E+01 -0.30734780090E+02  0.49052644484E+02  0.58182767247E+02  0.00000000000E+00 0. -1.
      -12    1    3    3    0    0 -0.58690515776E+01  0.30734780090E+02  0.18994992701E+03  0.19250986272E+03  0.00000000000E+00 0.  1.
</event>
<event>
 5   0  0.2413800E+01  0.8054219E+02  0.7957747E-01  0.1326114E+00
        1   -1    0    0  501    0  0.00000000000E+00  0.00000000000E+00  0.47436799510E+03  0.47436799510E+03  0.00000000000E+00 0. -1.
       -2   -1    0    0    0  501  0.00000000000E+00  0.00000000000E+00 -0.34187824535E+01  0.34187824535E+01  0.00000000000E+00 0.  1.
      -24    2    1    2    0    0  0.00000000000E+00  0.00000000000E+00  0.47094921264E+03  0.47778677755E+03  0.80542187161E+02 0.  0.
       11    1    3    3    0    0 -0.26579611719E+02 -0.30126471662E+02  0.21903401449E+03  0.22268807682E+03  0.00000000000E+00 0. -1.
      -12    1    3    3    0    0  0.26579611719E+02  0.30126471662E+02  0.25191519815E+03  0.25509870073E+03  0.00000000000E+00 0.  1.
</event>
<event>
 5   0  0.2413800E+01  0.8145593E+02  0.7957747E-01  0.1323698E+00
        3   -1    0    0  501    0  0.00000000000E+00  0.00000000000E+00  0.13369844218E+02  0.13369844218E+02  0.00000000000E+00 0. -1.
       -4   -1    0    0    0  501  0.00000000000E+00  0.00000000000E+00 -0.12406778886E+03  0.12406778886E+03  0.00000000000E+00 0.  1.
      -24    2    1    2    0    0  0.00000000000E+00  0.00000000000E+00 -0.11069794465E+03  0.13743763308E+03  0.81455926969E+02 0.  0.
       11    1    3    3    0    0 -0.37341936359E+02  0.48778216884E+01 -0.29179862118E+02  0.47641134629E+02  0.00000000000E+00 0. -1.
      -12    1    3    3    0    0  0.37341936359E+02 -0.48778216884E+01 -0.81518082528E+02  0.89796498453E+02  0.00000000000E+00 0.  1.
</event>
<event>
 5   0  0.2413800E+01  0.8775464E+02  0.7957747E-01  0.1307963E+00
       -2   -1    0    0    0  501  0.00000000000E+00  0.00000000000E+00  0.29098011463E+02  0.29098011463E+02  0.00000000000E+00 0.  1.
        1   -1    0    0  501    0  0.00000000000E+00  0.00000000000E+00 -0.66163258213E+02  0.66163258213E+02  0.00000000000E+00 0. -1.
      -24    2    1    2    0    0  0.00000000000E+00  0.00000000000E+00 -0.37065246750E+02  0.95261269676E+02  0.87754640810E+02 0.  0.
       11    1    3    3    0    0  0.36275164016E+02  0.12231741018E+02 -0.41807703915E+02  0.56686745535E+02  0.00000000000E+00 0. -1.
      -12    1    3    3    0    0 -0.36275164016E+02 -0.12231741018E+02  0.47424571649E+01  0.38574524141E+02  0.00000000000E+00 0.  1.
</event>
<event>
 5   0  0.2413800E+01  0.8067304E+02  0.7957747E-01  0.1325766E+00
       -2   -1    0    0    0  501  0.00000000000E+00  0.00000000000E+00  0.23807005172E+01  0.23807005172E+01  0.00000000000E+00 0.  1.
        1   -1    0    0  501    0  0.00000000000E+00  0.00000000000E+00 -0.68342686109E+03  0.68342686109E+03  0.00000000000E+00 0. -1.
      -24    2    1    2    0    0  0.00000000000E+00  0.00000000000E+00 -0.68104616057E+03  0.68580756160E+03  0.80673035932E+02 0.  0.
       11    1    3    3    0    0  0.94956157779E+01 -0.36792180749E+02 -0.22545877197E+03  0.22863833699E+03  0.00000000000E+00 0. -1.
      -12    1    3    3    0    0 -0.94956157779E+01  0.36792180749E+02 -0.45558738860E+03  0.45716922461E+03  0.00000000000E+00 0.  1.
</event>
<event>
 5   0  0.2413800E+01  0.7754055E+02  0.7957747E-01  0.1334314E+00
       -2   -1    0    0    0  501  0.00000000000E+00  0.00000000000E+00  0.47332320583E+01  0.47332320583E+01  0.00000000000E+00 0.  1.
        1   -1    0    0  501    0  0.00000000000E+00  0.00000000000E+00 -0.31757040129E+03  0.31757040129E+03  0.00000000000E+00 0. -1.
      -24    2    1    2    0    0  0.00000000000E+00  0.00000000000E+00 -0.31283716924E+03  0.32230363335E+03  0.77540554658E+02 0.  0.
       11    1    3    3    0    0  0.77460936876E+01 -0.35069929805E+02 -0.21711498795E+03  0.22006549011E+03  0.00000000000E+00 0. -1.
      -12    1    3    3    0    0 -0.77460936876E+01  0.35069929805E+02 -0.95722181289E+02  0.10223814325E+03  0.00000000000E+00 0.  1.
</event>
<event>
 5   0  0.2413800E+01  0.7914949E+02  0.7957747E-01  0.1329867E+00
        3   -1    0    0  501    0  0.00000000000E+00  0.00000000000E+00  0.21218420304E+02  0.21218420304E+02  0.00000000000E+00 0. -1.
       -4   -1    0    0    0  501  0.00000000000E+00  0.00000000000E+00 -0.73811358652E+02  0.73811358652E+02  0.00000000000E+00 0.  1.
      -24    2    1    2    0    0  0.00000000000E+00  0.00000000000E+00 -0.52592938348E+02  0.95029778957E+02  0.79149489729E+02 0.  0.
       11    1    3    3    0    0 -0.25831866256E+02 -0.28496933137E+02 -0.37482377576E+02  0.53705578307E+02  0.00000000000E+00 0. -1.
      -12    1    3    3    0    0  0.25831866256E+02  0.28496933137E+02 -0.15110560772E+02  0.41324200650E+02  0.00000000000E+00 0.  1.
</event>
<event>
 5   0  0.2413800E+01  0.6792275E+02  0.7957747E-01  0.1363717E+00
        1   -1    0    0  501    0  0.00000000000E+00  0.00000000000E+00  0.30776251602E+01  0.30776251602E+01  0.00000000000E+00 0. -1.
       -2   -1    0    0    0  501  0.00000000000E+00  0.00000000000E+00 -0.37476137377E+03  0.37476137377E+03  0.00000000000E+00 0.  1.
      -24    2    1    2    0    0  0.00000000000E+00  0.00000000000E+00 -0.37168374861E+03  0.37783899893E+03  0.67922751210E+02 0.  0.
       11    1    3    3    0    0 -0.32150009856E+02  0.79032638200E+01 -0.14373702299E+03  0.14750056437E+03  0.00000000000E+00 0. -1.
      -12    1    3    3    0    0  0.32150009856E+02 -0.79032638200E+01 -0.22794672563E+03  0.23033843456E+03  0.00000000000E+00 0.  1.
</event>
<event>
 5   0  0.2413800E+01  0.7954167E+02  0.7957747E-01  0.1328802E+00
        3   -1    0    0  501    0  0.00000000000E+00  0.00000000000E+00  0.20457727470E+02  0.20457727470E+02  0.00000000000E+00 0. -1.
       -4   -1    0    0    0  501  0.00000000000E+00  0.00000000000E+00 -0.77316473164E+02  0.77316473164E+02  0.00000000000E+00 0.  1.
      -24    2    1    2    0    0  0.00000000000E+00  0.00000000000E+00 -0.56858745694E+02  0.97774200634E+02  0.79541670512E+02 0.  0.
       11    1    3    3    0    0 -0.46348973913E+01 -0.19032736626E+02  0.14116410597E+02  0.24145400917E+02  0.00000000000E+00 0. -1.
      -12    1    3    3    0    0  0.46348973913E+01  0.19032736626E+02 -0.70975156291E+02  0.73628799717E+02  0.00000000000E+00 0.  1.
</event>
<event>
 5   0  0.2413800E+01  0.8052664E+02  0.7957747E-01  0.1326155E+00
       -2   -1    0    0    0  501  0.00000000000E+00  0.00000000000E+00  0.35319314803E+03  0.35319314803E+03  0.00000000000E+00 0.  1.
        1   -1    0    0  501    0  0.00000000000E+00  0.00000000000E+00 -0.45899388678E+01  0.45899388678E+01  0.00000000000E+00 0. -1.
      -24    2    1    2    0    0  0.00000000000E+00  0.00000000000E+00  0.34860320917E+03  0.35778308690E+03  0.80526640511E+02 0.  0.
       11    1    3    3    0    0 -0.66072680895E+01 -0.25629802296E+02  0.39494161565E+02  0.47542944325E+02  0.00000000000E+00 0. -1.
      -12    1    3    3    0    0  0.66072680895E+01  0.25629802296E+02  0.30910904760E+03  0.31024014258E+03  0.00000000000E+00 0.  1.
</event>
<event>
 5   0  0.2413800E+01  0.8114157E+02  0.7957747E-01  0.1324525E+00
       -2   -1    0    0    0  501  0.00000000000E+00  0.00000000000E+00  0.63780109839E+02  0.63780109839E+02  0.00000000000E+00 0.  1.
        1   -1    0    0  501    0  0.00000000000E+00  0.00000000000E+00 -0.25807241551E+02  0.25807241551E+02  0.00000000000E+00 0. -1.
      -24    2    1    2    0    0  0.00000000000E+00  0.00000000000E+00  0.37972868288E+02  0.89587351390E+02  0.81141572594E+02 0.  0.
       11    1    3    3    0    0  0.22957927806E+02 -0.18642612961E+02 -0.11678082405E+02  0.31796085857E+02  0.00000000000E+00 0. -1.
      -12    1    3    3    0    0 -0.22957927806E+02  0.18642612961E+02  0.49650950693E+02  0.57791265533E+02  0.00000000000E+00 0.  1.
</event>
<event>
 5   0  0.2413800E+01  0.8159719E+02  0.7957747E-01  0.1323327E+00
        1   -1    0    0  501    0  0.00000000000E+00  0.00000000000E+00  0.23160807575E+03  0.23160807575E+03  0.00000000000E+00 0. -1.
       -2   -1    0    0    0  501  0.00000000000E+00  0.00000000000E+00 -0.71868183722E+01  0.71868183722E+01  0.00000000000E+00 0.  1.
      -24    2    1    2    0    0  0.00000000000E+00  0.00000000000E+00  0.22442125738E+03  0.23879489412E+03  0.81597185587E+02 0.  0.
       11    1    3    3    0    0 -0.31672283172E+02 -0.31919075075E+01  0.18689129424E+03  0.18958290445E+03  0.00000000000E+00 0. -1.
      -12    1    3    3    0    0  0.31672283172E+02  0.31919075075E+01  0.37529963136E+02  0.49211989676E+02  0.00000000000E+00 0.  1.
</event>
<event>
 5   0  0.2413800E+01  0.7999773E+02  0.7957747E-01  0.1327571E+00
        1   -1    0    0  501    0  0.00000000000E+00  0.00000000000E+00  0.15010836741E+02  0.15010836741E+02  0.00000000000E+00 0. -1.
       -2   -1    0    0    0  501  0.00000000000E+00  0.00000000000E+00 -0.10658360840E+03  0.10658360840E+03  0.00000000000E+00 0.  1.
      -24    2    1    2    0    0  0.00000000000E+00  0.00000000000E+00 -0.91572771663E+02  0.12159444515E+03  0.79997728593E+02 0.  0.
       11    1    3    3    0    0 -0.39069711373E+02 -0.83893147183E+01 -0.48456611025E+02  0.62808169056E+02  0.00000000000E+00 0. -1.
      -12    1    3    3    0    0  0.39069711373E+02  0.83893147183E+01 -0.43116160638E+02  0.58786276089E+02  0.00000000000E+00 0.  1.
</event>
<event>
 5   0  0.2413800E+01  0.9231697E+02  0.7957747E-01  0.1297468E+00
       -2   -1    0    0    0  501  0.00000000000E+00  0.00000000000E+00  0.37374793790E+01  0.37374793790E+01  0.00000000000E+00 0.  1.
        1   -1    0    0  501    0  0.00000000000E+00  0.00000000000E+00 -0.57006484737E+03  0.57006484737E+03  0.00000000000E+00 0. -1.
      -24    2    1    2    0    0  0.00000000000E+00  0.00000000000E+00 -0.56632736799E+03  0.57380232675E+03  0.92316967275E+02 0.  0.
       11    1    3    3    0    0 -0.38530633088E+02 -0.11174283925E+02 -0.14127284489E+03  0.14685874509E+03  0.00000000000E+00 0. -1.
      -12    1    3    3    0    0  0.38530633088E+02  0.11174283925E+02 -0.42505452310E+03  0.42694358166E+03  0.00000000000E+00 0.  1.
</event>
<event>
 5   0  0.2413800E+01  0.8056565E+02  0.7957747E-01  0.1326051E+00
       -4   -1    0    0    0  501  0.00000000000E+00  0.00000000000E+00  0.58320915672E+02  0.58320915672E+02  0.00000000000E+00 0.  1.
        3   -1    0    0  501    0  0.00000000000E+00  0.00000000000E+00 -0.27823740589E+02  0.27823740589E+02  0.00000000000E+00 0. -1.
      -24    2    1    2    0    0  0.00000000000E+00  0.00000000000E+00  0.30497175083E+02  0.86144656261E+02  0.80565650958E+02 0.  0.
       11    1    3    3    0    0  0.50041877912E+01  0.35202566811E+02 -0.49950582595E+01  0.35905615335E+02  0.00000000000E+00 0. -1.
      -12    1    3    3    0    0 -0.50041877912E+01 -0.35202566811E+02  0.35492233342E+02  0.50239040926E+02  0.00000000000E+00 0.  1.
</event>
<event>
 5   0  0.2413800E+01  0.7946705E+02  0.7957747E-01  0.1329004E+00
        1   -1    0    0  501    0  0.00000000000E+00  0.00000000000E+00  0.67438405380E+02  0.67438405380E+02  0.00000000000E+00 0. -1.
       -2   -1    0    0    0  501  0.00000000000E+00  0.00000000000E+00 -0.23410295851E+02  0.23410295851E+02  0.00000000000E+00 0.  1.
      -24    2    1    2    0    0  0.00000000000E+00  0.00000000000E+00  0.44028109529E+02  0.90848701231E+02  0.79467050320E+02 0.  0.
       11    1    3    3    0    0  0.35757097954E+02 -0.15628344859E+02  0.30564413548E+02  0.49568120729E+02  0.00000000000E+00 0. -1.
      -12    1    3    3    0    0 -0.35757097954E+02  0.15628344859E+02  0.13463695981E+02  0.41280580502E+02  0.00000000000E+00 0.  1.
</event>
<event>
 5   0  0.2413800E+01  0.7836493E+02  0.7957747E-01  0.1332020E+00
        1   -1    0    0  501    0  0.00000000000E+00  0.00000000000E+00  0.73457362132E+02  0.73457362132E+02  0.00000000000E+00 0. -1.
       -2   -1    0    0    0  501  0.00000000000E+00  0.00000000000E+00 -0.20900091868E+02  0.20900091868E+02  0.00000000000E+00 0.  1.
      -24    2    1    2    0    0  0.00000000000E+00  0.00000000000E+00  0.52557270264E+02  0.94357454001E+02  0.78364931365E+02 0.  0.
       11    1    3    3    0    0 -0.19413991213E+02 -0.33569632141E+02  0.19526952423E+02  0.43418027683E+02  0.00000000000E+00 0. -1.
      -12    1    3    3    0    0  0.19413991213E+02  0.33569632141E+02  0.33030317841E+02  0.50939426318E+02  0.00000000000E+00 0.  1.
</event>
<event>
 5   0  0.2413800E+01  0.8652302E+02  0.7957747E-01  0.1310920E+00
        1   -1    0    0  501    0  0.00000000000E+00  0.00000000000E+00  0.21893459503E+02  0.21893459503E+02  0.00000000000E+00 0. -1.
       -2   -1    0    0    0  501  0.00000000000E+00  0.00000000000E+00 -0.85484811396E+02  0.85484811396E+02  0.00000000000E+00 0.  1.
      -24    2    1    2    0    0  0.00000000000E+00  0.00000000000E+00 -0.63591351893E+02  0.10737827090E+03  0.86523020208E+02 0.  0.
       11    1    3    3    0    0  0.14462032390E+02 -0.91751412332E+01  0.17506847462E+02  0.24491290402E+02  0.00000000000E+00 0. -1.
      -12    1    3    3    0    0 -0.14462032390E+02  0.91751412332E+01 -0.81098199355E+02  0.82886980498E+02  0.00000000000E+00 0.  1.
</event>
<event>
 5   0  0.2413800E+01  0.8113437E+02  0.7957747E-01  0.1324544E+00
        1   -1    0    0  501    0  0.00000000000E+00  0.00000000000E+00  0.11919800931E+02  0.11919800931E+02  0.00000000000E+00 0. -1.
       -2   -1    0    0    0  501  0.00000000000E+00  0.00000000000E+00 -0.13806408677E+03  0.13806408677E+03  0.00000000000E+00 0.  1.
      -24    2    1    2    0    0  0.00000000000E+00  0.00000000000E+00 -0.12614428584E+03  0.14998388770E+03  0.81134368304E+02 0.  0.
       11    1    3    3    0    0 -0.30653580643E+02  0.14510057281E+02 -0.21922400072E+02  0.40382860145E+02  0.00000000000E+00 0. -1.
      -12    1    3    3    0    0  0.30653580643E+02 -0.14510057281E+02 -0.10422188577E+03  0.10960102756E+03  0.00000000000E+00 0.  1.
</event>
<event>
 5   0  0.2413800E+01  0.8055331E+02  0.7957747E-01  0.1326084E+00
       -2   -1    0    0    0  501  0.00000000000E+00  0.00000000000E+00  0.46166836064E+02  0.46166836064E+02  0.00000000000E+00 0.  1.
        1   -1    0    0  501    0  0.00000000000E+00  0.00000000000E+00 -0.35137973252E+02  0.35137973252E+02  0.00000000000E+00 0. -1.
      -24    2    1    2    0    0  0.00000000000E+00  0.00000000000E+00  0.11028862812E+02  0.81304809316E+02  0.80553312800E+02 0.  0.
       11    1    3    3    0    0 -0.21757533457E+02  0.32231301175E+02 -0.50696743573E+01  0.39216688230E+02  0.00000000000E+00 0. -1.
      -12    1    3    3    0    0  0.21757533457E+02 -0.32231301175E+02  0.16098537169E+02  0.42088121087E+02  0.00000000000E+00 0.  1.
</event>
<event>
 5   0  0.2413800E+01  0.8061762E+02  0.7957747E-01  0.1325913E+00
        3   -1    0    0  501    0  0.00000000000E+00  0.00000000000E+00  0.11978090405E+03  0.11978090405E+03  0.00000000000E+00 0. -1.
       -4   -1    0    0    0  501  0.00000000000E+00  0.00000000000E+00 -0.13564767831E+02  0.13564767831E+02  0.00000000000E+00 0.  1.
      -24    2    1    2    0    0  0.00000000000E+00  0.00000000000E+00  0.10621613622E+03  0.13334567188E+03  0.80617619763E+02 0.  0.
       11    1    3    3    0    0 -0.24898006486E+02 -0.19082768136E+02  0.94976720781E+02  0.10002319859E+03  0.00000000000E+00 0. -1.
      -12    1    3    3    0    0  0.24898006486E+02  0.19082768136E+02  0.11239415441E+02  0.33322473290E+02  0.00000000000E+00 0.  1.
</event>
<event>
 5   0  0.2413800E+01  0.8073557E+02  0.7957747E-01  0.1325599E+00
       -2   -1    0    0    0  501  0.00000000000E+00  0.00000000000E+00  0.98063390372E+02  0.98063390372E+02  0.00000000000E+00 0.  1.
        1   -1    0    0  501    0  0.00000000000E+00  0.00000000000E+00 -0.16617396373E+02  0.16617396373E+02  0.00000000000E+00 0. -1.
      -24    2    1    2    0    0  0.00000000000E+00  0.00000000000E+00  0.81445993999E+02  0.11468078674E+03  0.80735574005E+02 0.  0.
       11    1    3    3    0    0  0.19905371176E+02 -0.32840767065E+02  0.23048906434E+02  0.44788300602E+02  0.00000000000E+00 0. -1.
      -12    1    3    3    0    0 -0.19905371176E+02  0.32840767065E+02  0.58397087565E+02  0.69892486142E+02  0.00000000000E+00 0.  1.
</event>
<event>
 5   0  0.2413800E+01  0.8087171E+02  0.7957747E-01  0.1325238E+00
        1   -1    0    0  501    0  0.00000000000E+00  0.00000000000E+00  0.27693340477E+02  0.27693340477E+02  0.00000000000E+00 0. -1.
       -2   -1    0    0    0  501  0.00000000000E+00  0.00000000000E+00 -0.59041573573E+02  0.59041573573E+02  0.00000000000E+00 0.  1.
      -24    2    1    2    0    0  0.00000000000E+00  0.00000000000E+00 -0.31348233095E+02  0.86734914050E+02  0.80871710734E+02 0.  0.
       11    1    3    3    0    0 -0.30042233988E+02  0.21441565093E+02  0.20394114298E+01  0.36965331537E+02  0.00000000000E+00 0. -1.
      -12    1    3    3    0    0  0.30042233988E+02 -0.21441565093E+02 -0.33387644525E+02  0.49769582514E+02  0.00000000000E+00 0.  1.
</event>
<event>
 5   0  0.2413800E+01  0.7753765E+02  0.7957747E-01  0.1334322E+00
       -2   -1    0    0    0  501  0.00000000000E+00  0.00000000000E+00  0.24833426979E+02  0.24833426979E+02  0.00000000000E+00 0.  1.
        1   -1    0    0  501    0  0.00000000000E+00  0.00000000000E+00 -0.60524140813E+02  0.60524140813E+02  0.00000000000E+00 0. -1.
      -24    2    1    2    0    0  0.00000000000E+00  0.00000000000E+00 -0.35690713833E+02  0.85357567792E+02  0.77537651018E+02 0.  0.
       11    1    3    3    0    0 -0.38702792139E+02 -0.22275391457E+01 -0.17413657686E+02  0.42498276718E+02  0.00000000000E+00 0. -1.
      -12    1    3    3    0    0  0.38702792139E+02  0.22275391457E+01 -0.18277056147E+02  0.42859291074E+02  0.00000000000E+00 0.  1.
</event>
<event>
 5   0  0.2413800E+01  0.8347450E+02  0.7957747E-01  0.1318485E+00
        1   -1    0    0  501    0  0.00000000000E+00  0.00000000000E+00  0.44516202771E+01  0.44516202771E+01  0.00000000000E+00 0. -1.
       -2   -1    0    0    0  501  0.00000000000E+00  0.00000000000E+00 -0.39131775412E+03  0.39131775412E+03  0.00000000000E+00 0.  1.
      -24    2    1    2    0    0  0.00000000000E+00  0.00000000000E+00 -0.38686613385E+03  0.39576937440E+03  0.83474500275E+02 0.  0.
       11    1    3    3    0    0  0.13399035818E+02  0.39112263147E+02 -0.16632319713E+03  0.17138468191E+03  0.00000000000E+00 0. -1.
      -12    1    3    3    0    0 -0.13399035818E+02 -0.39112263147E+02 -0.22054293671E+03  0.22438469249E+03  0.00000000000E+00 0.  1.
</event>
<event>
 5   0  0.2413800E+01  0.8042005E+02  0.7957747E-01  0.1326440E+00
       -4   -1    0    0    0  501  0.00000000000E+00  0.00000000000E+00  0.33681441970E+02  0.33681441970E+02  0.00000000000E+00 0.  1.
        3   -1    0    0  501    0  0.00000000000E+00  0.00000000000E+00 -0.48004059619E+02  0.48004059619E+02  0.00000000000E+00 0. -1.
      -24    2    1    2    0    0  0.00000000000E+00  0.00000000000E+00 -0.14322617649E+02  0.81685501589E+02  0.80420045968E+02 0.  0.
       11    1    3    3    0    0 -0.18453601482E+02  0.17387856170E+02 -0.38860933611E+02  0.46400917135E+02  0.00000000000E+00 0. -1.
      -12    1    3    3    0    0  0.18453601482E+02 -0.17387856170E+02  0.24538315962E+02  0.35284584454E+02  0.00000000000E+00 0.  1.
</event>
<event>
 5   0  0.2413800E+01  0.7946904E+02  0.7957747E-01  0.1328998E+00
        1   -1    0    0  501    0  0.00000000000E+00  0.00000000000E+00  0.14984874645E+03  0.14984874645E+03  0.00000000000E+00 0. -1.
       -2   -1    0    0    0  501  0.00000000000E+00  0.00000000000E+00 -0.10536170191E+02  0.10536170191E+02  0.00000000000E+00 0.  1.
      -24    2    1    2    0    0  0.00000000000E+00  0.00000000000E+00  0.13931257626E+03  0.16038491664E+03  0.79469035368E+02 0.  0.
       11    1    3    3    0    0  0.22075020886E+02 -0.22132816428E+02  0.11916054178E+03  0.12319254372E+03  0.00000000000E+00 0. -1.
      -12    1    3    3    0    0 -0.22075020886E+02  0.22132816428E+02  0.20152034479E+02  0.37192372924E+02  0.00000000000E+00 0.  1.
</event>
<event>
 5   0  0.2413800E+01  0.7753012E+02  0.7957747E-01  0.1334343E+00
        1   -1    0    0  501    0  0.00000000000E+00  0.00000000000E+00  0.67141680402E+02  0.67141680402E+02  0.00000000000E+00 0. -1.
       -2   -1    0    0    0  501  0.00000000000E+00  0.00000000000E+00 -0.22381475312E+02  0.22381475312E+02  0.00000000000E+00 0.  1.
      -24    2    1    2    0    0  0.00000000000E+00  0.00000000000E+00  0.44760205090E+02  0.89523155714E+02  0.77530119627E+02 0.  0.
       11    1    3    3    0    0  0.25101143472E+02 -0.10375493520E+01  0.56469556058E+02  0.61805781879E+02  0.00000000000E+00 0. -1.
      -12    1    3    3    0    0 -0.25101143472E+02  0.10375493520E+01 -0.11709350968E+02  0.27717373836E+02  0.00000000000E+00 0.  1.
</event>
<event>
 5   0  0.2413800E+01  0.8121568E+02  0.7957747E-01  0.1324329E+00
        3   -1    0    0  501    0  0.00000000000E+00  0.00000000000E+00  0.24069469166E+02  0.24069469166E+02  0.00000000000E+00 0. -1.
       -4   -1    0    0    0  501  0.00000000000E+00  0.00000000000E+00 -0.68509889161E+02  0.68509889161E+02  0.00000000000E+00 0.  1.
      -24    2    1    2    0    0  0.00000000000E+00  0.00000000000E+00 -0.44440419995E+02  0.92579358327E+02  0.81215679883E+02 0.  0.
       11    1    3    3    0    0 -0.27608159409E+02  0.27818228044E+02 -0.10106322490E+02  0.40474708544E+02  0.00000000000E+00 0. -1.
      -12    1    3    3    0    0  0.27608159409E+02 -0.27818228044E+02 -0.34334097505E+02  0.52104649782E+02  0.00000000000E+00 0.  1.
</event>
<event>
 5   0  0.2413800E+01  0.8167613E+02  0.7957747E-01  0.1323121E+00
        1   -1    0    0  501    0  0.00000000000E+00  0.00000000000E+00  0.10023519097E+03  0.10023519097E+03  0.00000000000E+00 0. -1.
       -2   -1    0    0    0  501  0.00000000000E+00  0.00000000000E+00 -0.16638344316E+02  0.16638344316E+02  0.00000000000E+00 0.  1.
      -24    2    1    2    0    0  0.00000000000E+00  0.00000000000E+00  0.83596846658E+02  0.11687353529E+03  0.81676131641E+02 0.  0.
       11    1    3    3    0    0 -0.40158316745E+02 -0.72028967223E+01  0.39248502269E+02  0.56612870050E+02  0.00000000000E+00 0. -1.
      -12    1    3    3    0    0  0.40158316745E+02  0.72028967223E+01  0.44348344389E+02  0.60260665239E+02  0.00000000000E+00 0.  1.
</event>
<event>
 5   0  0.2413800E+01  0.8061285E+02  0.7957747E-01  0.1325926E+00
       -2   -1    0    0    0  501  0.00000000000E+00  0.00000000000E+00  0.89497341838E+02  0.89497341838E+02  0.00000000000E+00 0.  1.
        1   -1    0    0  501    0  0.00000000000E+00  0.00000000000E+00 -0.18152582639E+02  0.18152582639E+02  0.00000000000E+00 0. -1.
      -24    2    1    2    0    0  0.00000000000E+00  0.00000000000E+00  0.71344759199E+02  0.10764992448E+03  0.80612849936E+02 0.  0.
       11    1    3    3    0    0  0.16083621519E+02  0.17305687196E+02 -0.79367382427E+01  0.24923111852E+02  0.00000000000E+00 0. -1.
      -12    1    3    3    0    0 -0.16083621519E+02 -0.17305687196E+02  0.79281497442E+02  0.82726812625E+02  0.00000000000E+00 0.  1.
</event>
<event>
 5   0  0.2413800E+01  0.8099551E+02  0.7957747E-01  0.1324911E+00
        1   -1    0    0  501    0  0.00000000000E+00  0.00000000000E+00  0.19774863431E+03  0.19774863431E+03  0.00000000000E+00 0. -1.
       -2   -1    0    0    0  501  0.00000000000E+00  0.00000000000E+00 -0.82937022071E+01  0.82937022071E+01  0.00000000000E+00 0.  1.
      -24    2    1    2    0    0  0.00000000000E+00  0.00000000000E+00  0.18945493211E+03  0.20604233652E+03  0.80995513082E+02 0.  0.
       11    1    3    3    0    0 -0.31964505981E+02  0.17441841296E+02  0.49641242235E+02  0.61564603475E+02  0.00000000000E+00 0. -1.
      -12    1    3    3    0    0  0.31964505981E+02 -0.17441841296E+02  0.13981368987E+03  0.14447773305E+03  0.00000000000E+00 0.  1.
</event>
<event>
 5   0  0.2413800E+01  0.8303218E+02  0.7957747E-01  0.1319613E+00
       -2   -1    0    0    0  501  0.00000000000E+00  0.00000000000E+00  0.53091140587E+02  0.53091140587E+02  0.00000000000E+00 0.  1.
        1   -1    0    0  501    0  0.00000000000E+00  0.00000000000E+00 -0.32464658328E+02  0.32464658328E+02  0.00000000000E+00 0. -1.
      -24    2    1    2    0    0  0.00000000000E+00  0.00000000000E+00  0.20626482259E+02  0.85555798916E+02  0.83032180254E+02 0.  0.
       11    1    3    3    0    0 -0.16461121005E+02 -0.25371050686E+02 -0.18992835498E+02  0.35712554066E+02  0.00000000000E+00 0. -1.
      -12    1    3    3    0    0  0.16461121005E+02  0.25371050686E+02  0.39619317757E+02  0.49843244850E+02  0.00000000000E+00 0.  1.
</event>
<event>
 5   0  0.2413800E+01  0.8189718E+02  0.7957747E-01  0.1322544E+00
       -2   -1    0    0    0  501  0.00000000000E+00  0.00000000000E+00  0.62170868441E+02  0.62170868441E+02  0.00000000000E+00 0.  1.
        1   -1    0    0  501    0  0.00000000000E+00  0.00000000000E+00 -0.26970620156E+02  0.26970620156E+02  0.00000000000E+00 0. -1.
      -24    2    1    2    0    0  0.00000000000E+00  0.00000000000E+00  0.35200248285E+02  0.89141488597E+02  0.81897176447E+02 0.  0.
       11    1    3    3    0    0  0.13012025143E+02 -0.25994520210E+02 -0.13791205191E+02  0.32174916004E+02  0.00000000000E+00 0. -1.
      -12    1    3    3    0    0 -0.13012025143E+02  0.25994520210E+02  0.48991453476E+02  0.56966572593E+02  0.00000000000E+00 0.  1.
</event>
<event>
 5   0  0.2413800E+01  0.8045699E+02  0.7957747E-01  0.1326341E+00
       -4   -1    0    0    0  501  0.00000000000E+00  0.00000000000E+00  0.11839109851E+03  0.11839109851E+03  0.00000000000E+00 0.  1.
        3   -1    0    0  501    0  0.00000000000E+00  0.00000000000E+00 -0.13669369651E+02  0.13669369651E+02  0.00000000000E+00 0. -1.
      -24    2    1    2    0    0  0.00000000000E+00  0.00000000000E+00  0.10472172886E+03  0.13206046816E+03  0.80456986990E+02 0.  0.
       11    1    3    3    0    0  0.84324831215E+01  0.10544092273E+02 -0.98395674468E+01  0.16706338348E+02  0.00000000000E+00 0. -1.
      -12    1    3    3    0    0 -0.84324831215E+01 -0.10544092273E+02  0.11456129631E+03  0.11535412981E+03  0.00000000000E+00 0.  1.
</event>
<event>
 5   0  0.2413800E+01  0.8527708E+02  0.7957747E-01  0.1313968E+00
       -2   -1    0    0    0  501  0.00000000000E+00  0.00000000000E+00  0.12218104062E+02  0.12218104062E+02  0.00000000000E+00 0.  1.
        1   -1    0    0  501    0  0.00000000000E+00  0.00000000000E+00 -0.14879927288E+03  0.14879927288E+03  0.00000000000E+00 0. -1.
      -24    2    1    2    0    0  0.00000000000E+00  0.00000000000E+00 -0.13658116882E+03  0.16101737695E+03  0.85277077820E+02 0.  0.
       11    1    3    3    0    0  0.27095284262E+01 -0.42168113265E+02 -0.79063679191E+02  0.89646844272E+02  0.00000000000E+00 0. -1.
      -12    1    3    3    0    0 -0.27095284262E+01  0.42168113265E+02 -0.57517489632E+02  0.71370532674E+02  0.00000000000E+00 0.  1.
</event>
<event>
 5   0  0.2413800E+01  0.7161432E+02  0.7957747E-01  0.1351812E+00
        3   -1    0    0  501    0  0.00000000000E+00  0.00000000000E+00  0.21923776968E+02  0.21923776968E+02  0.00000000000E+00 0. -1.
       -4   -1    0    0    0  501  0.00000000000E+00  0.00000000000E+00 -0.58482289756E+02  0.58482289756E+02  0.00000000000E+00 0.  1.
      -24    2    1    2    0    0  0.00000000000E+00  0.00000000000E+00 -0.36558512788E+02  0.80406066724E+02  0.71614319160E+02 0.  0.
       11    1    3    3    0    0  0.14397353948E+02  0.10363219021E+02  0.16643481176E+02  0.24324587866E+02  0.00000000000E+00 0. -1.
      -12    1    3    3    0    0 -0.14397353948E+02 -0.10363219021E+02 -0.53201993964E+02  0.56081478858E+02  0.00000000000E+00 0.  1.
</event>
<event>
 5   0  0.2413800E+01  0.7678861E+02  0.7957747E-01  0.1336434E+00
        3   -1    0    0  501    0  0.00000000000E+00  0.00000000000E+00  0.75743844032E+02  0.75743844032E+02  0.00000000000E+00 0. -1.
       -4   -1    0    0    0  501  0.00000000000E+00  0.00000000000E+00 -0.19461944565E+02  0.19461944565E+02  0.00000000000E+00 0.  1.
      -24    2    1    2    0    0  0.00000000000E+00  0.00000000000E+00  0.56281899466E+02  0.95205788597E+02  0.76788605762E+02 0.  0.
       11    1    3    3    0    0 -0.37281612982E+02  0.91104467745E+01  0.26780741898E+02  0.46798793185E+02  0.00000000000E+00 0. -1.
      -12    1    3    3    0    0  0.37281612982E+02 -0.91104467745E+01  0.29501157568E+02  0.48406995412E+02  0.00000000000E+00 0.  1.
</event>
<event>
 5   0  0.2413800E+01  0.7931939E+02  0.7957747E-01  0.1329405E+00
        3   -1    0    0  501    0  0.00000000000E+00  0.00000000000E+00  0.47701130107E+02  0.47701130107E+02  0.00000000000E+00 0. -1.
       -4   -1    0    0    0  501  0.00000000000E+00  0.00000000000E+00 -0.32973882205E+02  0.32973882205E+02  0.00000000000E+00 0.  1.
      -24    2    1    2    0    0  0.00000000000E+00  0.00000000000E+00  0.14727247902E+02  0.80675012311E+02  0.79319390950E+02 0.  0.
       11    1    3    3    0    0  0.26388521502E+02 -0.27277632529E+02  0.19069809175E+02  0.42474473810E+02  0.00000000000E+00 0. -1.
      -12    1    3    3    0    0 -0.26388521502E+02  0.27277632529E+02 -0.43425612727E+01  0.38200538502E+02  0.00000000000E+00 0.  1.
</event>
<event>
 5   0  0.2413800E+01  0.8280111E+02  0.7957747E-01  0.1320205E+00
        1   -1    0    0  501    0  0.00000000000E+00  0.00000000000E+00  0.13531988260E+03  0.13531988260E+03  0.00000000000E+00 0. -1.
       -2   -1    0    0    0  501  0.00000000000E+00  0.00000000000E+00 -0.12666328319E+02  0.12666328319E+02  0.00000000000E+00 0.  1.
      -24    2    1    2    0    0  0.00000000000E+00  0.00000000000E+00  0.12265355428E+03  0.14798621091E+03  0.82801112579E+02 0.  0.
       11    1    3    3    0    0  0.12277027879E+02  0.18369820061E+02  0.12390169159E+03  0.12585628662E+03  0.00000000000E+00 0. -1.
      -12    1    3    3    0    0 -0.12277027879E+02 -0.18369820061E+02 -0.12481373133E+01  0.22129924296E+02  0.00000000000E+00 0.  1.
</event>
<event>
 5   0  0.2413800E+01  0.8681571E+02  0.7957747E-01  0.1310212E+00
        1   -1    0    0  501    0  0.00000000000E+00  0.00000000000E+00  0.23593592721E+03  0.23593592721E+03  0.00000000000E+00 0. -1.
       -2   -1    0    0    0  501  0.00000000000E+00  0.00000000000E+00 -0.79862443197E+01  0.79862443197E+01  0.00000000000E+00 0.  1.
      -24    2    1    2    0    0  0.00000000000E+00  0.00000000000E+00  0.22794968289E+03  0.24392217153E+03  0.86815711908E+02 0.  0.
       11    1    3    3    0    0  0.42085913548E+02  0.16187894531E+01  0.14349592479E+03  0.14954907231E+03  0.00000000000E+00 0. -1.
      -12    1    3    3    0    0 -0.42085913548E+02 -0.16187894531E+01  0.84453758106E+02  0.94373099222E+02  0.00000000000E+00 0.  1.
</event>
<event>
 5   0  0.2413800E+01  0.8080203E+02  0.7957747E-01  0.1325423E+00
        1   -1    0    0  501    0  0.00000000000E+00  0.00000000000E+00  0.12916383969E+03  0.12916383969E+03  0.00000000000E+00 0. -1.
       -2   -1    0    0    0  501  0.00000000000E+00  0.00000000000E+00 -0.12636987653E+02  0.12636987653E+02  0.00000000000E+00 0.  1.
      -24    2    1    2    0    0  0.00000000000E+00  0.00000000000E+00  0.11652685204E+03  0.14180082734E+03  0.80802025899E+02 0.  0.
       11    1    3    3    0    0 -0.26128631368E+02  0.88097292732E+01  0.11008327166E+03  0.11348411081E+03  0.00000000000E+00 0. -1.
      -12    1    3    3    0    0  0.26128631368E+02 -0.88097292732E+01  0.64435803768E+01  0.28316716532E+02  0.00000000000E+00 0.  1.
</event>
<event>
 5   0  0.2413800E+01  0.7894710E+02  0.7957747E-01  0.1330420E+00
       -2   -1    0    0    0  501  0.00000000000E+00  0.00000000000E+00  0.38644934796E+02  0.38644934796E+02  0.00000000000E+00 0.  1.
        1   -1    0    0  501    0  0.00000000000E+00  0.00000000000E+00 -0.40319935194E+02  0.40319935194E+02  0.00000000000E+00 0. -1.
      -24    2    1    2    0    0  0.00000000000E+00  0.00000000000E+00 -0.16750003977E+01  0.78964869991E+02  0.78947102963E+02 0.  0.
       11    1    3    3    0    0 -0.18856960443E+02  0.20829632286E+02 -0.28569228597E+02  0.40070679567E+02  0.00000000000E+00 0. -1.
      -12    1    3    3    0    0  0.18856960443E+02 -0.20829632286E+02  0.26894228199E+02  0.38894190424E+02  0.00000000000E+00 0.  1.
</event>
<event>
 5   0  0.2413800E+01  0.7959063E+02  0.7957747E-01  0.1328669E+00
        1   -1    0    0  501    0  0.00000000000E+00  0.00000000000E+00  0.34840211099E+02  0.34840211099E+02  0.00000000000E+00 0. -1.
       -2   -1    0    0    0  501  0.00000000000E+00  0.00000000000E+00 -0.45455148865E+02  0.45455148865E+02  0.00000000000E+00 0.  1.
      -24    2    1    2    0    0  0.00000000000E+00  0.00000000000E+00 -0.10614937766E+02  0.80295359964E+02  0.79590627137E+02 0.  0.
       11    1    3    3    0    0 -0.24558465523E+02  0.26936548960E+02  0.10801731629E+02  0.38018065507E+02  0.00000000000E+00 0. -1.
      -12    1    3    3    0    0  0.24558465523E+02 -0.26936548960E+02 -0.21416669395E+02  0.42277294457E+02  0.00000000000E+00 0.  1.
</event>
<event>
 5   0  0.2413800E+01  0.8039790E+02  0.7957747E-01  0.1326499E+00
        1   -1    0    0  501    0  0.00000000000E+00  0.00000000000E+00  0.10466642118E+02  0.10466642118E+02  0.00000000000E+00 0. -1.
       -2   -1    0    0    0  501  0.00000000000E+00  0.00000000000E+00 -0.15439103503E+03  0.15439103503E+03  0.00000000000E+00 0.  1.
      -24    2    1    2    0    0  0.00000000000E+00  0.00000000000E+00 -0.14392439291E+03  0.16485767715E+03  0.80397903205E+02 0.  0.
       11    1    3    3    0    0  0.14186960352E+02 -0.34968288577E+02 -0.43556384077E+02  0.57629937046E+02  0.00000000000E+00 0. -1.
      -12    1    3    3    0    0 -0.14186960352E+02  0.34968288577E+02 -0.10036800884E+03  0.10722774011E+03  0.00000000000E+00 0.  1.
</event>
<event>
 5   0  0.2413800E+01  0.7983138E+02  0.7957747E-01  0.1328019E+00
        1   -1    0    0  501    0  0.00000000000E+00  0.00000000000E+00  0.22306961993E+02  0.22306961993E+02  0.00000000000E+00 0. -1.
       -2   -1    0    0    0  501  0.00000000000E+00  0.00000000000E+00 -0.71424433408E+02  0.71424433408E+02  0.00000000000E+00 0.  1.
      -24    2    1    2    0    0  0.00000000000E+00  0.00000000000E+00 -0.49117471414E+02  0.93731395401E+02  0.79831375321E+02 0.  0.
       11    1    3    3    0    0  0.32986455446E+02 -0.21611540015E+02 -0.17311738478E+02  0.43068099492E+02  0.00000000000E+00 0. -1.
      -12    1    3    3    0    0 -0.32986455446E+02  0.21611540015E+02 -0.31805732936E+02  0.50663295909E+02  0.00000000000E+00 0.  1.
</event>
<event>
 5   0  0.2413800E+01  0.8110365E+02  0.7957747E-01  0.1324625E+00
        1   -1    0    0  501    0  0.00000000000E+00  0.00000000000E+00  0.49465790719E+02  0.49465790719E+02  0.00000000000E+00 0. -1.
       -2   -1    0    0    0  501  0.00000000000E+00  0.00000000000E+00 -0.33244198367E+02  0.33244198367E+02  0.00000000000E+00 0.  1.
      -24    2    1    2    0    0  0.00000000000E+00  0.00000000000E+00  0.16221592352E+02  0.82709989086E+02  0.81103651188E+02 0.  0.
       11    1    3    3    0    0 -0.23567452387E+02  0.88386255162E+01  0.40535245628E+02  0.47714277225E+02  0.00000000000E+00 0. -1.
      -12    1    3    3    0    0  0.23567452387E+02 -0.88386255162E+01 -0.24313653275E+02  0.34995711860E+02  0.00000000000E+00 0.  1.
</event>
<event>
 5   0  0.2413800E+01  0.8085463E+02  0.7957747E-01  0.1325284E+00
        1   -1    0    0  501    0  0.00000000000E+00  0.00000000000E+00  0.70361664832E+03  0.70361664832E+03  0.00000000000E+00 0. -1.
       -2   -1    0    0    0  501  0.00000000000E+00  0.00000000000E+00 -0.23228102919E+01  0.23228102919E+01  0.00000000000E+00 0.  1.
      -24    2    1    2    0    0  0.00000000000E+00  0.00000000000E+00  0.70129383803E+03  0.70593945861E+03  0.80854634803E+02 0.  0.
       11    1    3    3    0    0  0.15402303139E+01 -0.37791035183E+02  0.22599466072E+03  0.22913777803E+03  0.00000000000E+00 0. -1.
      -12    1    3    3    0    0 -0.15402303139E+01  0.37791035183E+02  0.47529917731E+03  0.47680168058E+03  0.00000000000E+00 0.  1.
</event>
<event>
 5   0  0.2413800E+01  0.5100118E+02  0.7957747E-01  0.1431990E+00
        1   -1    0    0  501    0  0.00000000000E+00  0.00000000000E+00  0.65860748134E+01  0.65860748134E+01  0.00000000000E+00 0. -1.
       -2   -1    0    0    0  501  0.00000000000E+00  0.00000000000E+00 -0.98735593899E+02  0.98735593899E+02  0.00000000000E+00 0.  1.
      -24    2    1    2    0    0  0.00000000000E+00  0.00000000000E+00 -0.92149519085E+02  0.10532166871E+03  0.51001176777E+02 0.  0.
       11    1    3    3    0    0 -0.20241169391E+02  0.84524658986E+01 -0.19218285024E+02  0.29163189081E+02  0.00000000000E+00 0. -1.
      -12    1    3    3    0    0  0.20241169391E+02 -0.84524658986E+01 -0.72931234061E+02  0.76158479631E+02  0.00000000000E+00 0.  1.
</event>
<event>
 5   0  0.2413800E+01  0.7951839E+02  0.7957747E-01  0.1328865E+00
       -2   -1    0    0    0  501  0.00000000000E+00  0.00000000000E+00  0.32668595914E+02  0.32668595914E+02  0.00000000000E+00 0.  1.
        1   -1    0    0  501    0  0.00000000000E+00  0.00000000000E+00 -0.48388785295E+02  0.48388785295E+02  0.00000000000E+00 0. -1.
      -24    2    1    2    0    0  0.00000000000E+00  0.00000000000E+00 -0.15720189381E+02  0.81057381210E+02  0.79518392177E+02 0.  0.
       11    1    3    3    0    0  0.12245382233E+02 -0.76672697421E+01 -0.45618278532E+02  0.47851475918E+02  0.00000000000E+00 0. -1.
      -12    1    3    3    0    0 -0.12245382233E+02  0.76672697421E+01  0.29898089151E+02  0.33205905291E+02  0.00000000000E+00 0.  1.
</event>
<event>
 5   0  0.2413800E+01  0.8063078E+02  0.7957747E-01  0.1325878E+00
        3   -1    0    0  501    0  0.00000000000E+00  0.00000000000E+00  0.12828489351E+03  0.12828489351E+03  0.00000000000E+00 0. -1.
       -4   -1    0    0    0  501  0.00000000000E+00  0.00000000000E+00 -0.12669695025E+02  0.12669695025E+02  0.00000000000E+00 0.  1.
      -24    2    1    2    0    0  0.00000000000E+00  0.00000000000E+00  0.11561519849E+03  0.14095458854E+03  0.80630775195E+02 0.  0.
       11    1    3    3    0    0  0.17547590069E+02 -0.22364776787E+02  0.10778231729E+03  0.11146806304E+03  0.00000000000E+00 0. -1.
      -12    1    3    3    0    0 -0.17547590069E+02  0.22364776787E+02  0.78328811980E+01  0.29486525496E+02  0.00000000000E+00 0.  1.
</event>
<event>
 5   0  0.2413800E+01  0.7895738E+02  0.7957747E-01  0.1330392E+00
       -2   -1    0    0    0  501  0.00000000000E+00  0.00000000000E+00  0.16831118300E+02  0.16831118300E+02  0.00000000000E+00 0.  1.
        1   -1    0    0  501    0  0.00000000000E+00  0.00000000000E+00 -0.92600318226E+02  0.92600318226E+02  0.00000000000E+00 0. -1.
      -24    2    1    2    0    0  0.00000000000E+00  0.00000000000E+00 -0.75769199926E+02  0.10943143653E+03  0.78957378645E+02 0.  0.
       11    1    3    3    0    0 -0.39152777497E+02 -0.15220739833E+01 -0.44576085213E+02  0.59348833753E+02  0.00000000000E+00 0. -1.
      -12    1    3    3    0    0  0.39152777497E+02  0.15220739833E+01 -0.31193114713E+02  0.50082602772E+02  0.00000000000E+00 0.  1.
</event>
<event>
 5   0  0.2413800E+01  0.8165216E+02  0.7957747E-01  0.1323183E+00
        1   -1    0    0  501    0  0.00000000000E+00  0.00000000000E+00  0.11813773802E+03  0.11813773802E+03  0.00000000000E+00 0. -1.
       -2   -1    0    0    0  501  0.00000000000E+00  0.00000000000E+00 -0.14108690228E+02  0.14108690228E+02  0.00000000000E+00 0.  1.
      -24    2    1    2    0    0  0.00000000000E+00  0.00000000000E+00  0.10402904779E+03  0.13224642824E+03  0.81652158573E+02 0.  0.
       11    1    3    3    0    0 -0.13209666219E+02  0.22516869183E+02  0.10285300934E+03  0.10611430728E+03  0.00000000000E+00 0. -1.
      -12    1    3    3    0    0  0.13209666219E+02 -0.22516869183E+02  0.11760384448E+01  0.26132120960E+02  0.00000000000E+00 0.  1.
</event>
<event>
 5   0  0.2413800E+01  0.8117439E+02  0.7957747E-01  0.1324438E+00
        1   -1    0    0  501    0  0.00000000000E+00  0.00000000000E+00  0.11665597205E+02  0.11665597205E+02  0.00000000000E+00 0. -1.
       -2   -1    0    0    0  501  0.00000000000E+00  0.00000000000E+00 -0.14121182177E+03  0.14121182177E+03  0.00000000000E+00 0.  1.
      -24    2    1    2    0    0  0.00000000000E+00  0.00000000000E+00 -0.12954622456E+03  0.15287741897E+03  0.81174385942E+02 0.  0.
       11    1    3    3    0    0  0.27530591460E+02  0.23951925146E+02 -0.31310784285E+02  0.48083192457E+02  0.00000000000E+00 0. -1.
      -12    1    3    3    0    0 -0.27530591460E+02 -0.23951925146E+02 -0.98235440277E+02  0.10479422651E+03  0.00000000000E+00 0.  1.
</event>
<event>
 5   0  0.2413800E+01  0.7926640E+02  0.7957747E-01  0.1329549E+00
        1   -1    0    0  501    0  0.00000000000E+00  0.00000000000E+00  0.52512908584E+01  0.52512908584E+01  0.00000000000E+00 0. -1.
       -2   -1    0    0    0  501  0.00000000000E+00  0.00000000000E+00 -0.29912466361E+03  0.29912466361E+03  0.00000000000E+00 0.  1.
      -24    2    1    2    0    0  0.00000000000E+00  0.00000000000E+00 -0.29387337276E+03  0.30437595447E+03  0.79266401749E+02 0.  0.
       11    1    3    3    0    0 -0.35967341309E+02  0.13619650243E+02 -0.11017645928E+03  0.11669617257E+03  0.00000000000E+00 0. -1.
      -12    1    3    3    0    0  0.35967341309E+02 -0.13619650243E+02 -0.18369691348E+03  0.18767978190E+03  0.00000000000E+00 0.  1.
</event>
<event>
 5   0  0.2413800E+01  0.7979824E+02  0.7957747E-01  0.1328108E+00
       -2   -1    0    0    0  501  0.00000000000E+00  0.00000000000E+00  0.17979362300E+02  0.17979362300E+02  0.00000000000E+00 0.  1.
        1   -1    0    0  501    0  0.00000000000E+00  0.00000000000E+00 -0.88542606134E+02  0.88542606134E+02  0.00000000000E+00 0. -1.
      -24    2    1    2    0    0  0.00000000000E+00  0.00000000000E+00 -0.70563243834E+02  0.10652196843E+03  0.79798235435E+02 0.  0.
       11    1    3    3    0    0  0.27505041044E+02 -0.27079262233E+02 -0.48771678680E+02  0.62197189384E+02  0.00000000000E+00 0. -1.
      -12    1    3    3    0    0 -0.27505041044E+02  0.27079262233E+02 -0.21791565154E+02  0.44324779050E+02  0.00000000000E+00 0.  1.
</event>
<event>
 5   0  0.2413800E+01  0.7194176E+02  0.7957747E-01  0.1350796E+00
       -2   -1    0    0    0  501  0.00000000000E+00  0.00000000000E+00  0.10675443992E+02  0.10675443992E+02  0.00000000000E+00 0.  1.
        1   -1    0    0  501    0  0.00000000000E+00  0.00000000000E+00 -0.12120379194E+03  0.12120379194E+03  0.00000000000E+00 0. -1.
      -24    2    1    2    0    0  0.00000000000E+00  0.00000000000E+00 -0.11052834794E+03  0.13187923593E+03  0.71941762349E+02 0.  0.
       11    1    3    3    0    0  0.31791761331E+02  0.12742544557E+02 -0.35115004543E+02  0.49052544016E+02  0.00000000000E+00 0. -1.
      -12    1    3    3    0    0 -0.31791761331E+02 -0.12742544557E+02 -0.75413343401E+02  0.82826691913E+02  0.00000000000E+00 0.  1.
</event>
<event>
 5   0  0.2413800E+01  0.8281140E+02  0.7957747E-01  0.1320179E+00
        1   -1    0    0  501    0  0.00000000000E+00  0.00000000000E+00  0.15581404857E+03  0.15581404857E+03  0.00000000000E+00 0. -1.
       -2   -1    0    0    0  501  0.00000000000E+00  0.00000000000E+00 -0.11003063981E+02  0.11003063981E+02  0.00000000000E+00 0.  1.
      -24    2    1    2    0    0  0.00000000000E+00  0.00000000000E+00  0.14481098459E+03  0.16681711255E+03  0.82811398865E+02 0.  0.
       11    1    3    3    0    0 -0.29717835708E+02 -0.91703091303E+01  0.12746918231E+03  0.13120837156E+03  0.00000000000E+00 0. -1.
      -12    1    3    3    0    0  0.29717835708E+02  0.91703091303E+01  0.17341802282E+02  0.35608740993E+02  0.00000000000E+00 0.  1.
</event>
<event>
 5   0  0.2413800E+01  0.7938329E+02  0.7957747E-01  0.1329231E+00
       -2   -1    0    0    0  501  0.00000000000E+00  0.00000000000E+00  0.33333393596E+02  0.33333393596E+02  0.00000000000E+00 0.  1.
        1   -1    0    0  501    0  0.00000000000E+00  0.00000000000E+00 -0.47262711133E+02  0.47262711133E+02  0.00000000000E+00 0. -1.
      -24    2    1    2    0    0  0.00000000000E+00  0.00000000000E+00 -0.13929317537E+02  0.80596104729E+02  0.79383286720E+02 0.  0.
       11    1    3    3    0    0  0.27381382926E+02 -0.23154890504E+02 -0.24240426725E+02  0.43283800353E+02  0.00000000000E+00 0. -1.
      -12    1    3    3    0    0 -0.27381382926E+02  0.23154890504E+02  0.10311109188E+02  0.37312304376E+02  0.00000000000E+00 0.  1.
</event>
<event>
 5   0  0.2413800E+01  0.8203952E+02  0.7957747E-01  0.1322173E+00
        3   -1    0    0  501    0  0.00000000000E+00  0.00000000000E+00  0.10956449122E+03  0.10956449122E+03  0.00000000000E+00 0. -1.
       -4   -1    0    0    0  501  0.00000000000E+00  0.00000000000E+00 -0.15357354967E+02  0.15357354967E+02  0.00000000000E+00 0.  1.
      -24    2    1    2    0    0  0.00000000000E+00  0.00000000000E+00  0.94207136249E+02  0.12492184618E+03  0.82039521779E+02 0.  0.
       11    1    3    3    0    0 -0.16778027565E+01 -0.36844634012E+02  0.74439323497E+02  0.83075597863E+02  0.00000000000E+00 0. -1.
      -12    1    3    3    0    0  0.16778027565E+01  0.36844634012E+02  0.19767812752E+02  0.41846248321E+02  0.00000000000E+00 0.  1.
</event>
<event>
 5   0  0.2413800E+01  0.7956090E+02  0.7957747E-01  0.1328749E+00
        3   -1    0    0  501    0  0.00000000000E+00  0.00000000000E+00  0.26110514734E+02  0.26110514734E+02  0.00000000000E+00 0. -1.
       -4   -1    0    0    0  501  0.00000000000E+00  0.00000000000E+00 -0.60607164342E+02  0.60607164342E+02  0.00000000000E+00 0.  1.
      -24    2    1    2    0    0  0.00000000000E+00  0.00000000000E+00 -0.34496649608E+02  0.86717679076E+02  0.79560901391E+02 0.  0.
       11    1    3    3    0    0 -0.22953803396E+02  0.25012107286E+02  0.53534745497E+01  0.34367750741E+02  0.00000000000E+00 0. -1.
      -12    1    3    3    0    0  0.22953803396E+02 -0.25012107286E+02 -0.39850124158E+02  0.52349928335E+02  0.00000000000E+00 0.  1.
</event>
<event>
 5   0  0.2413800E+01  0.8028566E+02  0.7957747E-01  0.1326799E+00
        3   -1    0    0  501    0  0.00000000000E+00  0.00000000000E+00  0.19015170018E+03  0.19015170018E+03  0.00000000000E+00 0. -1.
       -4   -1    0    0    0  501  0.00000000000E+00  0.00000000000E+00 -0.84745329422E+01  0.84745329422E+01  0.00000000000E+00 0.  1.
      -24    2    1    2    0    0  0.00000000000E+00  0.00000000000E+00  0.18167716724E+03  0.19862623313E+03  0.80285661166E+02 0.  0.
       11    1    3    3    0    0 -0.44172621560E+01  0.27963750924E+02  0.16124808723E+03  0.16371447463E+03  0.00000000000E+00 0. -1.
      -12    1    3    3    0    0  0.44172621560E+01 -0.27963750924E+02  0.20429080015E+02  0.34911758491E+02  0.00000000000E+00 0.  1.
</event>
<event>
 5   0  0.2413800E+01  0.7641178E+02  0.7957747E-01  0.1337507E+00
        1   -1    0    0  501    0  0.00000000000E+00  0.00000000000E+00  0.13000702110E+02  0.13000702110E+02  0.00000000000E+00 0. -1.
       -2   -1    0    0    0  501  0.00000000000E+00  0.00000000000E+00 -0.11227779831E+03  0.11227779831E+03  0.00000000000E+00 0.  1.
      -24    2    1    2    0    0  0.00000000000E+00  0.00000000000E+00 -0.99277096204E+02  0.12527850042E+03  0.76411784678E+02 0.  0.
       11    1    3    3    0    0 -0.33564934172E+02  0.53479539532E+01 -0.21029789975E+02  0.39968205912E+02  0.00000000000E+00 0. -1.
      -12    1    3    3    0    0  0.33564934172E+02 -0.53479539532E+01 -0.78247306229E+02  0.85310294511E+02  0.00000000000E+00 0.  1.
</event>
<event>
 5   0  0.2413800E+01  0.7716273E+02  0.7957747E-01  0.1335376E+00
        1   -1    0    0  501    0  0.00000000000E+00  0.00000000000E+00  0.30912532125E+02  0.30912532125E+02  0.00000000000E+00 0. -1.
       -2   -1    0    0    0  501  0.00000000000E+00  0.00000000000E+00 -0.48152692291E+02  0.48152692291E+02  0.00000000000E+00 0.  1.
      -24    2    1    2    0    0  0.00000000000E+00  0.00000000000E+00 -0.17240160166E+02  0.79065224416E+02  0.77162727980E+02 0.  0.
       11    1    3    3    0    0  0.36600362265E+02 -0.10789478220E+02 -0.27766414405E+01  0.38258451300E+02  0.00000000000E+00 0. -1.
      -12    1    3    3    0    0 -0.36600362265E+02  0.10789478220E+02 -0.14463518726E+02  0.40806773116E+02  0.00000000000E+00 0.  1.
</event>
<event>
 5   0  0.2413800E+01  0.8049662E+02  0.7957747E-01  0.1326235E+00
        3   -1    0    0  501    0  0.00000000000E+00  0.00000000000E+00  0.11986725713E+03  0.11986725713E+03  0.00000000000E+00 0. -1.
       -4   -1    0    0    0  501  0.00000000000E+00  0.00000000000E+00 -0.13514335425E+02  0.13514335425E+02  0.00000000000E+00 0.  1.
      -24    2    1    2    0    0  0.00000000000E+00  0.00000000000E+00  0.10635292171E+03  0.13338159255E+03  0.80496616557E+02 0.  0.
       11    1    3    3    0    0  0.92434758285E+01 -0.26348882437E+02  0.10120672819E+03  0.10498812924E+03  0.00000000000E+00 0. -1.
      -12    1    3    3    0    0 -0.92434758285E+01  0.26348882437E+02  0.51461935142E+01  0.28393463310E+02  0.00000000000E+00 0.  1.
</event>
<event>
 5   0  0.2413800E+01  0.7951168E+02  0.7957747E-01  0.1328883E+00
        1   -1    0    0  501    0  0.00000000000E+00  0.00000000000E+00  0.20978685719E+03  0.20978685719E+03  0.00000000000E+00 0. -1.
       -2   -1    0    0    0  501  0.00000000000E+00  0.00000000000E+00 -0.75339648812E+01  0.75339648812E+01  0.00000000000E+00 0.  1.
      -24    2    1    2    0    0  0.00000000000E+00  0.00000000000E+00  0.20225289231E+03  0.21732082207E+03  0.79511680013E+02 0.  0.
       11    1    3    3    0    0  0.38362241375E+02  0.62453803389E+01  0.12397118400E+03  0.12992120997E+03  0.00000000000E+00 0. -1.
      -12    1    3    3    0    0 -0.38362241375E+02 -0.62453803389E+01  0.78281708311E+02  0.87399612099E+02  0.00000000000E+00 0.  1.
</event>
<event>
 5   0  0.2413800E+01  0.8507935E+02  0.7957747E-01  0.1314458E+00
       -4   -1    0    0    0  501  0.00000000000E+00  0.00000000000E+00  0.17464136177E+02  0.17464136177E+02  0.00000000000E+00 0.  1.
        3   -1    0    0  501    0  0.00000000000E+00  0.00000000000E+00 -0.10361944527E+03  0.10361944527E+03  0.00000000000E+00 0. -1.
      -24    2    1    2    0    0  0.00000000000E+00  0.00000000000E+00 -0.86155309094E+02  0.12108358145E+03  0.85079353613E+02 0.  0.
       11    1    3    3    0    0 -0.43193687795E+01  0.41633419484E+02 -0.32274052616E+02  0.52854640637E+02  0.00000000000E+00 0. -1.
      -12    1    3    3    0    0  0.43193687795E+01 -0.41633419484E+02 -0.53881256478E+02  0.68228940812E+02  0.00000000000E+00 0.  1.
</event>
<event>
 5   0  0.2413800E+01  0.7817727E+02  0.7957747E-01  0.1332540E+00
       -2   -1    0    0    0  501  0.00000000000E+00  0.00000000000E+00  0.20989178494E+03  0.20989178494E+03  0.00000000000E+00 0.  1.
        1   -1    0    0  501    0  0.00000000000E+00  0.00000000000E+00 -0.72795674767E+01  0.72795674767E+01  0.00000000000E+00 0. -1.
      -24    2    1    2    0    0  0.00000000000E+00  0.00000000000E+00  0.20261221746E+03  0.21717135242E+03  0.78177270642E+02 0.  0.
       11    1    3    3    0    0  0.63832142725E+01  0.22554085082E+02  0.14410054323E+02  0.27515120278E+02  0.00000000000E+00 0. -1.
      -12    1    3    3    0    0 -0.63832142725E+01 -0.22554085082E+02  0.18820216314E+03  0.18965623214E+03  0.00000000000E+00 0.  1.
</event>
<event>
 5   0  0.2413800E+01  0.7845125E+02  0.7957747E-01  0.1331782E+00
       -2   -1    0    0    0  501  0.00000000000E+00  0.00000000000E+00  0.90234598265E+01  0.90234598265E+01  0.00000000000E+00 0.  1.
        1   -1    0    0  501    0  0.00000000000E+00  0.00000000000E+00 -0.17051661005E+03  0.17051661005E+03  0.00000000000E+00 0. -1.
      -24    2    1    2    0    0  0.00000000000E+00  0.00000000000E+00 -0.16149315022E+03  0.17954006988E+03  0.78451253158E+02 0.  0.
       11    1    3    3    0    0  0.33682287635E+02 -0.18206023979E+02 -0.10025897561E+03  0.10732109765E+03  0.00000000000E+00 0. -1.
      -12    1    3    3    0    0 -0.33682287635E+02  0.18206023979E+02 -0.61234174609E+02  0.72218972227E+02  0.00000000000E+00 0.  1.
</event>
<event>
 5   0  0.2413800E+01  0.8146509E+02  0.7957747E-01  0.1323674E+00
        1   -1    0    0  501    0  0.00000000000E+00  0.00000000000E+00  0.94212182664E+02  0.94212182664E+02  0.00000000000E+00 0. -1.
       -2   -1    0    0    0  501  0.00000000000E+00  0.00000000000E+00 -0.17610676781E+02  0.17610676781E+02  0.00000000000E+00 0.  1.
      -24    2    1    2    0    0  0.00000000000E+00  0.00000000000E+00  0.76601505883E+02  0.11182285945E+03  0.81465091855E+02 0.  0.
       11    1    3    3    0    0 -0.17933402658E+02 -0.31177701282E+02  0.64542540215E+02  0.73887722157E+02  0.00000000000E+00 0. -1.
      -12    1    3    3    0    0  0.17933402658E+02  0.31177701282E+02  0.12058965668E+02  0.37935137289E+02  0.00000000000E+00 0.  1.
</event>
<event>
 5   0  0.2413800E+01  0.7952543E+02  0.7957747E-01  0.1328846E+00
        3   -1    0    0  501    0  0.00000000000E+00  0.00000000000E+00  0.74224860169E+02  0.74224860169E+02  0.00000000000E+00 0. -1.
       -4   -1    0    0    0  501  0.00000000000E+00  0.00000000000E+00 -0.21301129668E+02  0.21301129668E+02  0.00000000000E+00 0.  1.
      -24    2    1    2    0    0  0.00000000000E+00  0.00000000000E+00  0.52923730501E+02  0.95525989838E+02  0.79525426653E+02 0.  0.
       11    1    3    3    0    0 -0.15300234537E+02  0.29176150994E+01  0.70407813512E+02  0.72110123134E+02  0.00000000000E+00 0. -1.
      -12    1    3    3    0    0  0.15300234537E+02 -0.29176150994E+01 -0.17484083012E+02  0.23415866704E+02  0.00000000000E+00 0.  1.
</event>
<event>
 5   0  0.2413800E+01  0.8039344E+02  0.7957747E-01  0.1326511E+00
       -2   -1    0    0    0  501  0.00000000000E+00  0.00000000000E+00  0.76709543381E+02  0.76709543381E+02  0.00000000000E+00 0.  1.
        1   -1    0    0  501    0  0.00000000000E+00  0.00000000000E+00 -0.21063561053E+02  0.21063561053E+02  0.00000000000E+00 0. -1.
      -24    2    1    2    0    0  0.00000000000E+00  0.00000000000E+00  0.55645982328E+02  0.97773104435E+02  0.80393436309E+02 0.  0.
       11    1    3    3    0    0  0.19245924975E+02  0.34737103210E+02  0.20256792096E+02  0.44580372291E+02  0.00000000000E+00 0. -1.
      -12    1    3    3    0    0 -0.19245924975E+02 -0.34737103210E+02  0.35389190232E+02  0.53192732143E+02  0.00000000000E+00 0.  1.
</event>
<event>
 5   0  0.2413800E+01  0.8140956E+02  0.7957747E-01  0.1323819E+00
        1   -1    0    0  501    0  0.00000000000E+00  0.00000000000E+00  0.27950466130E+02  0.27950466130E+02  0.00000000000E+00 0. -1.
       -2   -1    0    0    0  501  0.00000000000E+00  0.00000000000E+00 -0.59279120671E+02  0.59279120671E+02  0.00000000000E+00 0.  1.
      -24    2    1    2    0    0  0.00000000000E+00  0.00000000000E+00 -0.31328654541E+02  0.87229586801E+02  0.81409558518E+02 0.  0.
       11    1    3    3    0    0 -0.30322595427E+02  0.10196883784E+02  0.11303262019E+02  0.33929337815E+02  0.00000000000E+00 0. -1.
      -12    1    3    3    0    0  0.30322595427E+02 -0.10196883784E+02 -0.42631916560E+02  0.53300248985E+02  0.00000000000E+00 0.  1.
</event>
<event>
 5   0  0.2413800E+01  0.7146804E+02  0.7957747E-01  0.1352269E+00
        1   -1    0    0  501    0  0.00000000000E+00  0.00000000000E+00  0.38927777509E+02  0.38927777509E+02  0.00000000000E+00 0. -1.
       -2   -1    0    0    0  501  0.00000000000E+00  0.00000000000E+00 -0.32802292603E+02  0.32802292603E+02  0.00000000000E+00 0.  1.
      -24    2    1    2    0    0  0.00000000000E+00  0.00000000000E+00  0.61254849060E+01  0.71730070112E+02  0.71468044558E+02 0.  0.
       11    1    3    3    0    0 -0.95264515604E+01  0.26782566659E+02  0.24795333088E+02  0.37720918588E+02  0.00000000000E+00 0. -1.
      -12    1    3    3    0    0  0.95264515604E+01 -0.26782566659E+02 -0.18669848182E+02  0.34009151523E+02  0.00000000000E+00 0.  1.
</event>
<event>
 5   0  0.2413800E+01  0.7896754E+02  0.7957747E-01  0.1330364E+00
       -2   -1    0    0    0  501  0.00000000000E+00  0.00000000000E+00  0.14712755381E+03  0.14712755381E+03  0.00000000000E+00 0.  1.
        1   -1    0    0  501    0  0.00000000000E+00  0.00000000000E+00 -0.10596032109E+02  0.10596032109E+02  0.00000000000E+00 0. -1.
      -24    2    1    2    0    0  0.00000000000E+00  0.00000000000E+00  0.13653152170E+03  0.15772358592E+03  0.78967544833E+02 0.  0.
       11    1    3    3    0    0 -0.36484816480E+02 -0.89216848762E+00  0.38171055460E+02  0.52810673856E+02  0.00000000000E+00 0. -1.
      -12    1    3    3    0    0  0.36484816480E+02  0.89216848762E+00  0.98360466241E+02  0.10491291206E+03  0.00000000000E+00 0.  1.
</event>
<event>
 5   0  0.2413800E+01  0.8128949E+02  0.7957747E-01  0.1324135E+00
        1   -1    0    0  501    0  0.00000000000E+00  0.00000000000E+00  0.96845330571E+02  0.96845330571E+02  0.00000000000E+00 0. -1.
       -2   -1    0    0    0  501  0.00000000000E+00  0.00000000000E+00 -0.17058078437E+02  0.17058078437E+02  0.00000000000E+00 0.  1.
      -24    2    1    2    0    0  0.00000000000E+00  0.00000000000E+00  0.79787252134E+02  0.11390340901E+03  0.81289488745E+02 0.  0.
       11    1    3    3    0    0 -0.76027584928E+01 -0.28081510578E+02  0.79664763180E+02  0.84810657735E+02  0.00000000000E+00 0. -1.
      -12    1    3    3    0    0  0.76027584928E+01  0.28081510578E+02  0.12248895453E+00  0.29092751272E+02  0.00000000000E+00 0.  1.
</event>
<event>
 5   0  0.2413800E+01  0.7968604E+02  0.7957747E-01  0.1328411E+00
        1   -1    0    0  501    0  0.00000000000E+00  0.00000000000E+00  0.48495801789E+02  0.48495801789E+02  0.00000000000E+00 0. -1.
       -2   -1    0    0    0  501  0.00000000000E+00  0.00000000000E+00 -0.32734094312E+02  0.32734094312E+02  0.00000000000E+00 0.  1.
      -24    2    1    2    0    0  0.00000000000E+00  0.00000000000E+00  0.15761707478E+02  0.81229896101E+02  0.79686037660E+02 0.  0.
       11    1    3    3    0    0  0.37944055840E+02 -0.63093188750E+01  0.18469953030E+02  0.42669638423E+02  0.00000000000E+00 0. -1.
      -12    1    3    3    0    0 -0.37944055840E+02  0.63093188750E+01 -0.27082455523E+01  0.38560257678E+02  0.00000000000E+00 0.  1.
</event>
<event>
 5   0  0.2413800E+01  0.7174538E+02  0.7957747E-01  0.1351405E+00
        3   -1    0    0  501    0  0.00000000000E+00  0.00000000000E+00  0.34159841501E+02  0.34159841501E+02  0.00000000000E+00 0. -1.
       -4   -1    0    0    0  501  0.00000000000E+00  0.00000000000E+00 -0.37671429467E+02  0.37671429467E+02  0.00000000000E+00 0.  1.
      -24    2    1    2    0    0  0.00000000000E+00  0.00000000000E+00 -0.35115879661E+01  0.71831270968E+02  0.71745384792E+02 0.  0.
       11    1    3    3    0    0  0.91336860183E+01  0.13458763950E+02  0.30255712257E+02  0.34350701179E+02  0.00000000000E+00 0. -1.
      -12    1    3    3    0    0 -0.91336860183E+01 -0.13458763950E+02 -0.33767300223E+02  0.37480569789E+02  0.00000000000E+00 0.  1.
</event>
<event>
 5   0  0.2413800E+01  0.1085209E+03  0.7957747E-01  0.1265079E+00
       -2   -1    0    0    0  501  0.00000000000E+00  0.00000000000E+00  0.29064704745E+02  0.29064704745E+02  0.00000000000E+00 0.  1.
        1   -1    0    0  501    0  0.00000000000E+00  0.00000000000E+00 -0.10129806855E+03  0.10129806855E+03  0.00000000000E+00 0. -1.
      -24    2    1    2    0    0  0.00000000000E+00  0.00000000000E+00 -0.72233363808E+02  0.13036277330E+03  0.10852093722E+03 0.  0.
       11    1    3    3    0    0  0.49137909009E+02 -0.21275749027E+02 -0.46658238611E+02  0.71022410750E+02  0.00000000000E+00 0. -1.
      -12    1    3    3    0    0 -0.49137909009E+02  0.21275749027E+02 -0.25575125198E+02  0.59340362548E+02  0.00000000000E+00 0.  1.
</event>
<event>
 5   0  0.2413800E+01  0.8016851E+02  0.7957747E-01  0.1327112E+00
        1   -1    0    0  501    0  0.00000000000E+00  0.00000000000E+00  0.13887699003E+02  0.13887699003E+02  0.00000000000E+00 0. -1.
       -2   -1    0    0    0  501  0.00000000000E+00  0.00000000000E+00 -0.11569572951E+03  0.11569572951E+03  0.00000000000E+00 0.  1.
      -24    2    1    2    0    0  0.00000000000E+00  0.00000000000E+00 -0.10180803051E+03  0.12958342851E+03  0.80168509212E+02 0.  0.
       11    1    3    3    0    0  0.85855767084E+01  0.10141960998E+02  0.10224014284E+02  0.16766095800E+02  0.00000000000E+00 0. -1.
      -12    1    3    3    0    0 -0.85855767084E+01 -0.10141960998E+02 -0.11203204479E+03  0.11281733271E+03  0.00000000000E+00 0.  1.
</event>
<event>
 5   0  0.2413800E+01  0.7922297E+02  0.7957747E-01  0.1329667E+00
       -4   -1    0    0    0  501  0.00000000000E+00  0.00000000000E+00  0.80852526574E+01  0.80852526574E+01  0.00000000000E+00 0.  1.
        3   -1    0    0  501    0  0.00000000000E+00  0.00000000000E+00 -0.19406563009E+03  0.19406563009E+03  0.00000000000E+00 0. -1.
      -24    2    1    2    0    0  0.00000000000E+00  0.00000000000E+00 -0.18598037743E+03  0.20215088274E+03  0.79222967664E+02 0.  0.
       11    1    3    3    0    0  0.90972504117E+00 -0.38240460631E+02 -0.66730388051E+02  0.76916221425E+02  0.00000000000E+00 0. -1.
      -12    1    3    3    0    0 -0.90972504117E+00  0.38240460631E+02 -0.11924998938E+03  0.12523466132E+03  0.00000000000E+00 0.  1.
</event>
<event>
 5   0  0.2413800E+01  0.7981438E+02  0.7957747E-01  0.1328065E+00
        1   -1    0    0  501    0  0.00000000000E+00  0.00000000000E+00  0.34601838965E+01  0.34601838965E+01  0.00000000000E+00 0. -1.
       -2   -1    0    0    0  501  0.00000000000E+00  0.00000000000E+00 -0.46025989175E+03  0.46025989175E+03  0.00000000000E+00 0.  1.
      -24    2    1    2    0    0  0.00000000000E+00  0.00000000000E+00 -0.45679970786E+03  0.46372007565E+03  0.79814381302E+02 0.  0.
       11    1    3    3    0    0  0.10690013211E+02  0.30344317244E+02 -0.91214159508E+02  0.96721646317E+02  0.00000000000E+00 0. -1.
      -12    1    3    3    0    0 -0.10690013211E+02 -0.30344317244E+02 -0.36558554835E+03  0.36699842933E+03  0.00000000000E+00 0.  1.
</event>
<event>
 5   0  0.2413800E+01  0.8037516E+02  0.7957747E-01  0.1326559E+00
       -2   -1    0    0    0  501  0.00000000000E+00  0.00000000000E+00  0.90667130841E+01  0.90667130841E+01  0.00000000000E+00 0.  1.
        1   -1    0    0  501    0  0.00000000000E+00  0.00000000000E+00 -0.17812865691E+03  0.17812865691E+03  0.00000000000E+00 0. -1.
      -24    2    1    2    0    0  0.00000000000E+00  0.00000000000E+00 -0.16906194382E+03  0.18719536999E+03  0.80375155968E+02 0.  0.
       11    1    3    3    0    0  0.99888315710E+01  0.32245891420E+02 -0.13531574716E+03  0.13946299043E+03  0.00000000000E+00 0. -1.
      -12    1    3    3    0    0 -0.99888315710E+01 -0.32245891420E+02 -0.33746196666E+02  0.47732379566E+02  0.00000000000E+00 0.  1.
</event>
<event>
 5   0  0.2413800E+01  0.7993439E+02  0.7957747E-01  0.1327741E+00
        1   -1    0    0  501    0  0.00000000000E+00  0.00000000000E+00  0.13756500139E+03  0.13756500139E+03  0.00000000000E+00 0. -1.
       -2   -1    0    0    0  501  0.00000000000E+00  0.00000000000E+00 -0.11611794778E+02  0.11611794778E+02  0.00000000000E+00 0.  1.
      -24    2    1    2    0    0  0.00000000000E+00  0.00000000000E+00  0.12595320661E+03  0.14917679617E+03  0.79934387213E+02 0.  0.
       11    1    3    3    0    0 -0.35789853779E+02 -0.14842258223E+02  0.81278163554E+02  0.90040802603E+02  0.00000000000E+00 0. -1.
      -12    1    3    3    0    0  0.35789853779E+02  0.14842258223E+02  0.44675043058E+02  0.59135993565E+02  0.00000000000E+00 0.  1.
</event>
<event>
 5   0  0.2413800E+01  0.7749183E+02  0.7957747E-01  0.1334451E+00
       -2   -1    0    0    0  501  0.00000000000E+00  0.00000000000E+00  0.50455328435E+02  0.50455328435E+02  0.00000000000E+00 0.  1.
        1   -1    0    0  501    0  0.00000000000E+00  0.00000000000E+00 -0.29753961120E+02  0.29753961120E+02  0.00000000000E+00 0. -1.
      -24    2    1    2    0    0  0.00000000000E+00  0.00000000000E+00  0.20701367315E+02  0.80209289556E+02  0.77491828746E+02 0.  0.
       11    1    3    3    0    0 -0.32906533924E+00  0.32206926611E+02 -0.11941788379E+02  0.34351138488E+02  0.00000000000E+00 0. -1.
      -12    1    3    3    0    0  0.32906533924E+00 -0.32206926611E+02  0.32643155694E+02  0.45858151068E+02  0.00000000000E+00 0.  1.
</event>
<event>
 5   0  0.2413800E+01  0.8072186E+02  0.7957747E-01  0.1325636E+00
       -2   -1    0    0    0  501  0.00000000000E+00  0.00000000000E+00  0.41911764513E+02  0.41911764513E+02  0.00000000000E+00 0.  1.
        1   -1    0    0  501    0  0.00000000000E+00  0.00000000000E+00 -0.38867484023E+02  0.38867484023E+02  0.00000000000E+00 0. -1.
      -24    2    1    2    0    0  0.00000000000E+00  0.00000000000E+00  0.30442804897E+01  0.80779248536E+02  0.80721864140E+02 0.  0.
       11    1    3    3    0    0 -0.15689434219E+02 -0.14754199211E+02 -0.32636567109E+02  0.39102304960E+02  0.00000000000E+00 0. -1.
      -12    1    3    3    0    0  0.15689434219E+02  0.14754199211E+02  0.35680847599E+02  0.41676943576E+02  0.00000000000E+00 0.  1.
</event>
<event>
 5   0  0.2413800E+01  0.8372418E+02  0.7957747E-01  0.1317851E+00
       -2   -1    0    0    0  501  0.00000000000E+00  0.00000000000E+00  0.21823564596E+03  0.21823564596E+03  0.00000000000E+00 0.  1.
        1   -1    0    0  501    0  0.00000000000E+00  0.00000000000E+00 -0.80300103443E+01  0.80300103443E+01  0.00000000000E+00 0. -1.
      -24    2    1    2    0    0  0.00000000000E+00  0.00000000000E+00  0.21020563562E+03  0.22626565631E+03  0.83724177980E+02 0.  0.
       11    1    3    3    0    0  0.36546796332E+02  0.26362396005E+01  0.50393358662E+02  0.62306570107E+02  0.00000000000E+00 0. -1.
      -12    1    3    3    0    0 -0.36546796332E+02 -0.26362396005E+01  0.15981227696E+03  0.16395908620E+03  0.00000000000E+00 0.  1.
</event>
<event>
 5   0  0.2413800E+01  0.8000358E+02  0.7957747E-01  0.1327555E+00
        1   -1    0    0  501    0  0.00000000000E+00  0.00000000000E+00  0.63733489783E+01  0.63733489783E+01  0.00000000000E+00 0. -1.
       -2   -1    0    0    0  501  0.00000000000E+00  0.00000000000E+00 -0.25106785177E+03  0.25106785177E+03  0.00000000000E+00 0.  1.
      -24    2    1    2    0    0  0.00000000000E+00  0.00000000000E+00 -0.24469450279E+03  0.25744120074E+03  0.80003575833E+02 0.  0.
       11    1    3    3    0    0  0.12799614200E+02  0.37875801276E+02 -0.12658775439E+03  0.13275114315E+03  0.00000000000E+00 0. -1.
      -12    1    3    3    0    0 -0.12799614200E+02 -0.37875801276E+02 -0.11810674839E+03  0.12469005759E+03  0.00000000000E+00 0.  1.
</event>
<event>
 5   0  0.2413800E+01  0.7998870E+02  0.7957747E-01  0.1327595E+00
       -4   -1    0    0    0  501  0.00000000000E+00  0.00000000000E+00  0.19662109962E+03  0.19662109962E+03  0.00000000000E+00 0.  1.
        3   -1    0    0  501    0  0.00000000000E+00  0.00000000000E+00 -0.81351791837E+01  0.81351791837E+01  0.00000000000E+00 0. -1.
      -24    2    1    2    0    0  0.00000000000E+00  0.00000000000E+00  0.18848592044E+03  0.20475627881E+03  0.79988696120E+02 0.  0.
       11    1    3    3    0    0 -0.34715404251E+02  0.48214087711E+01  0.44927962804E+02  0.56981813911E+02  0.00000000000E+00 0. -1.
      -12    1    3    3    0    0  0.34715404251E+02 -0.48214087711E+01  0.14355795763E+03  0.14777446489E+03  0.00000000000E+00 0.  1.
</event>
<event>
 5   0  0.2413800E+01  0.8071803E+02  0.7957747E-01  0.1325646E+00
        1   -1    0    0  501    0  0.00000000000E+00  0.00000000000E+00  0.21787119243E+03  0.21787119243E+03  0.00000000000E+00 0. -1.
       -2   -1    0    0    0  501  0.00000000000E+00  0.00000000000E+00 -0.74762063263E+01  0.74762063263E+01  0.00000000000E+00 0.  1.
      -24    2    1    2    0    0  0.00000000000E+00  0.00000000000E+00  0.21039498610E+03  0.22534739875E+03  0.80718027407E+02 0.  0.
       11    1    3    3    0    0  0.37532550818E+02  0.14578353918E+02  0.11290869163E+03  0.11987323896E+03  0.00000000000E+00 0. -1.
      -12    1    3    3    0    0 -0.37532550818E+02 -0.14578353918E+02  0.97486294474E+02  0.10547415979E+03  0.00000000000E+00 0.  1.
</event>
<event>
 5   0  0.2413800E+01  0.9012463E+02  0.7957747E-01  0.1302423E+00
       -2   -1    0    0    0  501  0.00000000000E+00  0.00000000000E+00  0.19943688235E+02  0.19943688235E+02  0.00000000000E+00 0.  1.
        1   -1    0    0  501    0  0.00000000000E+00  0.00000000000E+00 -0.10181729078E+03  0.10181729078E+03  0.00000000000E+00 0. -1.
      -24    2    1    2    0    0  0.00000000000E+00  0.00000000000E+00 -0.81873602542E+02  0.12176097901E+03  0.90124631575E+02 0.  0.
       11    1    3    3    0    0  0.79893808376E+01  0.30083744780E+02 -0.84959417141E+02  0.90481846064E+02  0.00000000000E+00 0. -1.
      -12    1    3    3    0    0 -0.79893808376E+01 -0.30083744780E+02  0.30858145991E+01  0.31279132947E+02  0.00000000000E+00 0.  1.
</event>
<event>
 5   0  0.2413800E+01  0.8295773E+02  0.7957747E-01  0.1319803E+00
       -2   -1    0    0    0  501  0.00000000000E+00  0.00000000000E+00  0.83585321201E+01  0.83585321201E+01  0.00000000000E+00 0.  1.
        1   -1    0    0  501    0  0.00000000000E+00  0.00000000000E+00 -0.20583710783E+03  0.20583710783E+03  0.00000000000E+00 0. -1.
      -24    2    1    2    0    0  0.00000000000E+00  0.00000000000E+00 -0.19747857571E+03  0.21419563995E+03  0.82957726037E+02 0.  0.
       11    1    3    3    0    0  0.29001090653E+02 -0.26990242410E+02 -0.13046301478E+03  0.13634564412E+03  0.00000000000E+00 0. -1.
      -12    1    3    3    0    0 -0.29001090653E+02  0.26990242410E+02 -0.67015560934E+02  0.77849995836E+02  0.00000000000E+00 0.  1.
</event>
<event>
 5   0  0.2413800E+01  0.8031625E+02  0.7957747E-01  0.1326717E+00
        1   -1    0    0  501    0  0.00000000000E+00  0.00000000000E+00  0.48676189231E+02  0.48676189231E+02  0.00000000000E+00 0. -1.
       -2   -1    0    0    0  501  0.00000000000E+00  0.00000000000E+00 -0.33130674657E+02  0.33130674657E+02  0.00000000000E+00 0.  1.
      -24    2    1    2    0    0  0.00000000000E+00  0.00000000000E+00  0.15545514575E+02  0.81806863888E+02  0.80316249637E+02 0.  0.
       11    1    3    3    0    0 -0.11095126257E+02 -0.19096286906E+02  0.41934832501E+02  0.47395149300E+02  0.00000000000E+00 0. -1.
      -12    1    3    3    0    0  0.11095126257E+02  0.19096286906E+02 -0.26389317926E+02  0.34411714588E+02  0.00000000000E+00 0.  1.
</event>
<event>
 5   0  0.2413800E+01  0.8109149E+02  0.7957747E-01  0.1324657E+00
       -4   -1    0    0    0  501  0.00000000000E+00  0.00000000000E+00  0.49351493517E+03  0.49351493517E+03  0.00000000000E+00 0.  1.
        3   -1    0    0  501    0  0.00000000000E+00  0.00000000000E+00 -0.33311198582E+01  0.33311198582E+01  0.00000000000E+00 0. -1.
      -24    2    1    2    0    0  0.00000000000E+00  0.00000000000E+00  0.49018381531E+03  0.49684605503E+03  0.81091489094E+02 0.  0.
       11    1    3    3    0    0  0.29020222909E+01 -0.11903746106E+02  0.82829625817E+01  0.14789468343E+02  0.00000000000E+00 0. -1.
      -12    1    3    3    0    0 -0.29020222909E+01  0.11903746106E+02  0.48190085273E+03  0.48205658669E+03  0.00000000000E+00 0.  1.
</event>
<event>
 5   0  0.2413800E+01  0.8020678E+02  0.7957747E-01  0.1327010E+00
        3   -1    0    0  501    0  0.00000000000E+00  0.00000000000E+00  0.17446442692E+02  0.17446442692E+02  0.00000000000E+00 0. -1.
       -4   -1    0    0    0  501  0.00000000000E+00  0.00000000000E+00 -0.92183949579E+02  0.92183949579E+02  0.00000000000E+00 0.  1.
      -24    2    1    2    0    0  0.00000000000E+00  0.00000000000E+00 -0.74737506886E+02  0.10963039227E+03  0.80206782593E+02 0.  0.
       11    1    3    3    0    0 -0.20102523160E+02 -0.24358308337E+02 -0.35867964087E+01  0.31785275379E+02  0.00000000000E+00 0. -1.
      -12    1    3    3    0    0  0.20102523160E+02  0.24358308337E+02 -0.71150710478E+02  0.77845116892E+02  0.00000000000E+00 0.  1.
</event>
<event>
 5   0  0.2413800E+01  0.8043223E+02  0.7957747E-01  0.1326407E+00
       -2   -1    0    0    0  501  0.00000000000E+00  0.00000000000E+00  0.22574611874E+02  0.22574611874E+02  0.00000000000E+00 0.  1.
        1   -1    0    0  501    0  0.00000000000E+00  0.00000000000E+00 -0.71644020255E+02  0.71644020255E+02  0.00000000000E+00 0. -1.
      -24    2    1    2    0    0  0.00000000000E+00  0.00000000000E+00 -0.49069408381E+02  0.94218632128E+02  0.80432231110E+02 0.  0.
       11    1    3    3    0    0  0.32546501943E+02  0.48223266027E+01 -0.51624451103E+02  0.61217755384E+02  0.00000000000E+00 0. -1.
      -12    1    3    3    0    0 -0.32546501943E+02 -0.48223266027E+01  0.25550427214E+01  0.33000876745E+02  0.00000000000E+00 0.  1.
</event>
<event>
 5   0  0.2413800E+01  0.8184723E+02  0.7957747E-01  0.1322674E+00
       -4   -1    0    0    0  501  0.00000000000E+00  0.00000000000E+00  0.15060195763E+03  0.15060195763E+03  0.00000000000E+00 0.  1.
        3   -1    0    0  501    0  0.00000000000E+00  0.00000000000E+00 -0.11120322552E+02  0.11120322552E+02  0.00000000000E+00 0. -1.
      -24    2    1    2    0    0  0.00000000000E+00  0.00000000000E+00  0.13948163507E+03  0.16172228018E+03  0.81847231981E+02 0.  0.
       11    1    3    3    0    0  0.30228918126E+02 -0.26435476581E+02  0.85314205226E+02  0.94292818001E+02  0.00000000000E+00 0. -1.
      -12    1    3    3    0    0 -0.30228918126E+02  0.26435476581E+02  0.54167429848E+02  0.67429462177E+02  0.00000000000E+00 0.  1.
</event>
<event>
 5   0  0.2413800E+01  0.7998183E+02  0.7957747E-01  0.1327614E+00
        1   -1    0    0  501    0  0.00000000000E+00  0.00000000000E+00  0.14670466629E+02  0.14670466629E+02  0.00000000000E+00 0. -1.
       -2   -1    0    0    0  501  0.00000000000E+00  0.00000000000E+00 -0.10901311412E+03  0.10901311412E+03  0.00000000000E+00 0.  1.
      -24    2    1    2    0    0  0.00000000000E+00  0.00000000000E+00 -0.94342647489E+02  0.12368358075E+03  0.79981829256E+02 0.  0.
       11    1    3    3    0    0 -0.18524121582E+02 -0.30137211167E+02 -0.18328709517E+02  0.39841387650E+02  0.00000000000E+00 0. -1.
      -12    1    3    3    0    0  0.18524121582E+02  0.30137211167E+02 -0.76013937972E+02  0.83842193097E+02  0.00000000000E+00 0.  1.
</event>
<event>
 5   0  0.2413800E+01  0.8189846E+02  0.7957747E-01  0.1322540E+00
        3   -1    0    0  501    0  0.00000000000E+00  0.00000000000E+00  0.23305215784E+03  0.23305215784E+03  0.00000000000E+00 0. -1.
       -4   -1    0    0    0  501  0.00000000000E+00  0.00000000000E+00 -0.71951246609E+01  0.71951246609E+01  0.00000000000E+00 0.  1.
      -24    2    1    2    0    0  0.00000000000E+00  0.00000000000E+00  0.22585703318E+03  0.24024728250E+03  0.81898457327E+02 0.  0.
       11    1    3    3    0    0 -0.39490909712E+02  0.89436207608E+01  0.13084892538E+03  0.13697065954E+03  0.00000000000E+00 0. -1.
      -12    1    3    3    0    0  0.39490909712E+02 -0.89436207608E+01  0.95008107800E+02  0.10327662296E+03  0.00000000000E+00 0.  1.
</event>
<event>
 5   0  0.2413800E+01  0.8051069E+02  0.7957747E-01  0.1326198E+00
        3   -1    0    0  501    0  0.00000000000E+00  0.00000000000E+00  0.90475847043E+02  0.90475847043E+02  0.00000000000E+00 0. -1.
       -4   -1    0    0    0  501  0.00000000000E+00  0.00000000000E+00 -0.17910779627E+02  0.17910779627E+02  0.00000000000E+00 0.  1.
      -24    2    1    2    0    0  0.00000000000E+00  0.00000000000E+00  0.72565067416E+02  0.10838662667E+03  0.80510693897E+02 0.  0.
       11    1    3    3    0    0  0.33394931916E+02 -0.20403933975E+02  0.23585641093E+02  0.45692717857E+02  0.00000000000E+00 0. -1.
      -12    1    3    3    0    0 -0.33394931916E+02  0.20403933975E+02  0.48979426322E+02  0.62693908813E+02  0.00000000000E+00 0.  1.
</event>
<event>
 5   0  0.2413800E+01  0.8110136E+02  0.7957747E-01  0.1324631E+00
       -4   -1    0    0    0  501  0.00000000000E+00  0.00000000000E+00  0.17875542575E+03  0.17875542575E+03  0.00000000000E+00 0.  1.
        3   -1    0    0  501    0  0.00000000000E+00  0.00000000000E+00 -0.91989244968E+01  0.91989244968E+01  0.00000000000E+00 0. -1.
      -24    2    1    2    0    0  0.00000000000E+00  0.00000000000E+00  0.16955650126E+03  0.18795435025E+03  0.81101360405E+02 0.  0.
       11    1    3    3    0    0 -0.16316242916E+02  0.45356518395E+01 -0.61129021128E+00  0.16945961060E+02  0.00000000000E+00 0. -1.
      -12    1    3    3    0    0  0.16316242916E+02 -0.45356518395E+01  0.17016779147E+03  0.17100838919E+03  0.00000000000E+00 0.  1.
</event>
<event>
 5   0  0.2413800E+01  0.8167799E+02  0.7957747E-01  0.1323116E+00
       -2   -1    0    0    0  501  0.00000000000E+00  0.00000000000E+00  0.33682484723E+02  0.33682484723E+02  0.00000000000E+00 0.  1.
        1   -1    0    0  501    0  0.00000000000E+00  0.00000000000E+00 -0.49516046966E+02  0.49516046966E+02  0.00000000000E+00 0. -1.
      -24    2    1    2    0    0  0.00000000000E+00  0.00000000000E+00 -0.15833562243E+02  0.83198531689E+02  0.81677989580E+02 0.  0.
       11    1    3    3    0    0 -0.46504004823E+01 -0.31501372595E+02 -0.33963514922E+02  0.46556235306E+02  0.00000000000E+00 0. -1.
      -12    1    3    3    0    0  0.46504004823E+01  0.31501372595E+02  0.18129952680E+02  0.36642296383E+02  0.00000000000E+00 0.  1.
</event>
<event>
 5   0  0.2413800E+01  0.7988865E+02  0.7957747E-01  0.1327864E+00
       -4   -1    0    0    0  501  0.00000000000E+00  0.00000000000E+00  0.36430003244E+02  0.36430003244E+02  0.00000000000E+00 0.  1.
        3   -1    0    0  501    0  0.00000000000E+00  0.00000000000E+00 -0.43797663135E+02  0.43797663135E+02  0.00000000000E+00 0. -1.
      -24    2    1    2    0    0  0.00000000000E+00  0.00000000000E+00 -0.73676598915E+01  0.80227666379E+02  0.79888647756E+02 0.  0.
       11    1    3    3    0    0 -0.84189151281E+01  0.92143480234E+01 -0.41789109083E+02  0.43613208772E+02  0.00000000000E+00 0. -1.
      -12    1    3    3    0    0  0.84189151281E+01 -0.92143480234E+01  0.34421449191E+02  0.36614457607E+02  0.00000000000E+00 0.  1.
</event>
<event>
 5   0  0.2413800E+01  0.7407509E+02  0.7957747E-01  0.1344321E+00
       -2   -1    0    0    0  501  0.00000000000E+00  0.00000000000E+00  0.51155593261E+01  0.51155593261E+01  0.00000000000E+00 0.  1.
        1   -1    0    0  501    0  0.00000000000E+00  0.00000000000E+00 -0.26815828201E+03  0.26815828201E+03  0.00000000000E+00 0. -1.
      -24    2    1    2    0    0  0.00000000000E+00  0.00000000000E+00 -0.26304272268E+03  0.27327384133E+03  0.74075086241E+02 0.  0.
       11    1    3    3    0    0 -0.28483184644E+02  0.18884316857E+02 -0.78846554574E+02  0.85934209712E+02  0.00000000000E+00 0. -1.
      -12    1    3    3    0    0  0.28483184644E+02 -0.18884316857E+02 -0.18419616811E+03  0.18733963162E+03  0.00000000000E+00 0.  1.
</event>
<event>
 5   0  0.2413800E+01  0.8236907E+02  0.7957747E-01  0.1321318E+00
        3   -1    0    0  501    0  0.00000000000E+00  0.00000000000E+00  0.46216693439E+02  0.46216693439E+02  0.00000000000E+00 0. -1.
       -4   -1    0    0    0  501  0.00000000000E+00  0.00000000000E+00 -0.36700285229E+02  0.36700285229E+02  0.00000000000E+00 0.  1.
      -24    2    1    2    0    0  0.00000000000E+00  0.00000000000E+00  0.95164082100E+01  0.82916978667E+02  0.82369067775E+02 0.  0.
       11    1    3    3    0    0 -0.34043784491E+01 -0.40902506065E+02  0.81809740074E+01  0.41851321732E+02  0.00000000000E+00 0. -1.
      -12    1    3    3    0    0  0.34043784491E+01  0.40902506065E+02  0.13354342027E+01  0.41065656935E+02  0.00000000000E+00 0.  1.
</event>
<event>
 5   0  0.2413800E+01  0.8024232E+02  0.7957747E-01  0.1326915E+00
       -4   -1    0    0    0  501  0.00000000000E+00  0.00000000000E+00  0.31535768771E+02  0.31535768771E+02  0.00000000000E+00 0.  1.
        3   -1    0    0  501    0  0.00000000000E+00  0.00000000000E+00 -0.51043868764E+02  0.51043868764E+02  0.00000000000E+00 0. -1.
      -24    2    1    2    0    0  0.00000000000E+00  0.00000000000E+00 -0.19508099993E+02  0.82579637536E+02  0.80242324058E+02 0.  0.
       11    1    3    3    0    0  0.23379247998E+02  0.40072736469E+01 -0.43054897930E+02  0.49156603979E+02  0.00000000000E+00 0. -1.
      -12    1    3    3    0    0 -0.23379247998E+02 -0.40072736469E+01  0.23546797937E+02  0.33423033557E+02  0.00000000000E+00 0.  1.
</event>
<event>
 5   0  0.2413800E+01  0.6682801E+02  0.7957747E-01  0.1367414E+00
        1   -1    0    0  501    0  0.00000000000E+00  0.00000000000E+00  0.51580520743E+01  0.51580520743E+01  0.00000000000E+00 0. -1.
       -2   -1    0    0    0  501  0.00000000000E+00  0.00000000000E+00 -0.21645685093E+03  0.21645685093E+03  0.00000000000E+00 0.  1.
      -24    2    1    2    0    0  0.00000000000E+00  0.00000000000E+00 -0.21129879885E+03  0.22161490300E+03  0.66828009365E+02 0.  0.
       11    1    3    3    0    0  0.32923625686E+02 -0.17052711308E+01 -0.12369836230E+03  0.12801624082E+03  0.00000000000E+00 0. -1.
      -12    1    3    3    0    0 -0.32923625686E+02  0.17052711308E+01 -0.87600436552E+02  0.93598662181E+02  0.00000000000E+00 0.  1.
</event>
<event>
 5   0  0.2413800E+01  0.8345309E+02  0.7957747E-01  0.1318539E+00
       -2   -1    0    0    0  501  0.00000000000E+00  0.00000000000E+00  0.68045619400E+01  0.68045619400E+01  0.00000000000E+00 0.  1.
        1   -1    0    0  501    0  0.00000000000E+00  0.00000000000E+00 -0.25587314812E+03  0.25587314812E+03  0.00000000000E+00 0. -1.
      -24    2    1    2    0    0  0.00000000000E+00  0.00000000000E+00 -0.24906858618E+03  0.26267771006E+03  0.83453093056E+02 0.  0.
       11    1    3    3    0    0 -0.70003432686E+01  0.33341948522E+02 -0.20036582924E+03  0.20324161941E+03  0.00000000000E+00 0. -1.
      -12    1    3    3    0    0  0.70003432686E+01 -0.33341948522E+02 -0.48702756943E+02  0.59436090644E+02  0.00000000000E+00 0.  1.
</event>
<event>
 5   0  0.2413800E+01  0.7288598E+02  0.7957747E-01  0.1347899E+00
       -2   -1    0    0    0  501  0.00000000000E+00  0.00000000000E+00  0.80496936362E+01  0.80496936362E+01  0.00000000000E+00 0.  1.
        1   -1    0    0  501    0  0.00000000000E+00  0.00000000000E+00 -0.16498659233E+03  0.16498659233E+03  0.00000000000E+00 0. -1.
      -24    2    1    2    0    0  0.00000000000E+00  0.00000000000E+00 -0.15693689869E+03  0.17303628597E+03  0.72885980061E+02 0.  0.
       11    1    3    3    0    0  0.16718773816E+02 -0.29802172821E+02 -0.10853624727E+03  0.11378841714E+03  0.00000000000E+00 0. -1.
      -12    1    3    3    0    0 -0.16718773816E+02  0.29802172821E+02 -0.48400651422E+02  0.59247868829E+02  0.00000000000E+00 0.  1.
</event>
<event>
 5   0  0.2413800E+01  0.7997721E+02  0.7957747E-01  0.1327626E+00
        1   -1    0    0  501    0  0.00000000000E+00  0.00000000000E+00  0.13867162429E+03  0.13867162429E+03  0.00000000000E+00 0. -1.
       -2   -1    0    0    0  501  0.00000000000E+00  0.00000000000E+00 -0.11531476304E+02  0.11531476304E+02  0.00000000000E+00 0.  1.
      -24    2    1    2    0    0  0.00000000000E+00  0.00000000000E+00  0.12714014799E+03  0.15020310060E+03  0.79977210493E+02 0.  0.
       11    1    3    3    0    0 -0.72568857875E+01 -0.32818754255E+02  0.10425781831E+03  0.10954189017E+03  0.00000000000E+00 0. -1.
      -12    1    3    3    0    0  0.72568857875E+01  0.32818754255E+02  0.22882329676E+02  0.40661210429E+02  0.00000000000E+00 0.  1.
</event>
<event>
 5   0  0.2413800E+01  0.8998513E+02  0.7957747E-01  0.1302744E+00
       -2   -1    0    0    0  501  0.00000000000E+00  0.00000000000E+00  0.23480080867E+02  0.23480080867E+02  0.00000000000E+00 0.  1.
        1   -1    0    0  501    0  0.00000000000E+00  0.00000000000E+00 -0.86214819295E+02  0.86214819295E+02  0.00000000000E+00 0. -1.
      -24    2    1    2    0    0  0.00000000000E+00  0.00000000000E+00 -0.62734738429E+02  0.10969490016E+03  0.89985130526E+02 0.  0.
       11    1    3    3    0    0 -0.38187192607E+02 -0.23069668687E+01 -0.60234207890E+02  0.71356454337E+02  0.00000000000E+00 0. -1.
      -12    1    3    3    0    0  0.38187192607E+02  0.23069668687E+01 -0.25005305384E+01  0.38338445825E+02  0.00000000000E+00 0.  1.
</event>
<event>
 5   0  0.2413800E+01  0.7984184E+02  0.7957747E-01  0.1327991E+00
       -2   -1    0    0    0  501  0.00000000000E+00  0.00000000000E+00  0.10653586905E+03  0.10653586905E+03  0.00000000000E+00 0.  1.
        1   -1    0    0  501    0  0.00000000000E+00  0.00000000000E+00 -0.14959091014E+02  0.14959091014E+02  0.00000000000E+00 0. -1.
      -24    2    1    2    0    0  0.00000000000E+00  0.00000000000E+00  0.91576778034E+02  0.12149496006E+03  0.79841837687E+02 0.  0.
       11    1    3    3    0    0 -0.29951018968E+02  0.12921963318E+02  0.10768259107E+02  0.34351070979E+02  0.00000000000E+00 0. -1.
      -12    1    3    3    0    0  0.29951018968E+02 -0.12921963318E+02  0.80808518927E+02  0.87143889082E+02  0.00000000000E+00 0.  1.
</event>
<event>
 5   0  0.2413800E+01  0.8059983E+02  0.7957747E-01  0.1325960E+00
       -4   -1    0    0    0  501  0.00000000000E+00  0.00000000000E+00  0.75481841959E+02  0.75481841959E+02  0.00000000000E+00 0.  1.
        3   -1    0    0  501    0  0.00000000000E+00  0.00000000000E+00 -0.21516210812E+02  0.21516210812E+02  0.00000000000E+00 0. -1.
      -24    2    1    2    0    0  0.00000000000E+00  0.00000000000E+00  0.53965631147E+02  0.96998052770E+02  0.80599831862E+02 0.  0.
       11    1    3    3    0    0 -0.35677801986E+02 -0.11479821911E+02  0.91574420693E+01  0.38581739346E+02  0.00000000000E+00 0. -1.
      -12    1    3    3    0    0  0.35677801986E+02  0.11479821911E+02  0.44808189078E+02  0.58416313424E+02  0.00000000000E+00 0.  1.
</event>
<event>
 5   0  0.2413800E+01  0.8115459E+02  0.7957747E-01  0.1324490E+00
        1   -1    0    0  501    0  0.00000000000E+00  0.00000000000E+00  0.52336926961E+02  0.52336926961E+02  0.00000000000E+00 0. -1.
       -2   -1    0    0    0  501  0.00000000000E+00  0.00000000000E+00 -0.31459946459E+02  0.31459946459E+02  0.00000000000E+00 0.  1.
      -24    2    1    2    0    0  0.00000000000E+00  0.00000000000E+00  0.20876980502E+02  0.83796873420E+02  0.81154591244E+02 0.  0.
       11    1    3    3    0    0 -0.39412160936E+02  0.77884447142E+01  0.16328476495E+02  0.43365855755E+02  0.00000000000E+00 0. -1.
      -12    1    3    3    0    0  0.39412160936E+02 -0.77884447142E+01  0.45485040078E+01  0.40431017665E+02  0.00000000000E+00 0.  1.
</event>
<event>
 5   0  0.2413800E+01  0.7941433E+02  0.7957747E-01  0.1329147E+00
       -2   -1    0    0    0  501  0.00000000000E+00  0.00000000000E+00  0.89053482101E+01  0.89053482101E+01  0.00000000000E+00 0.  1.
        1   -1    0    0  501    0  0.00000000000E+00  0.00000000000E+00 -0.17704629915E+03  0.17704629915E+03  0.00000000000E+00 0. -1.
      -24    2    1    2    0    0  0.00000000000E+00  0.00000000000E+00 -0.16814095094E+03  0.18595164736E+03  0.79414329772E+02 0.  0.
       11    1    3    3    0    0 -0.17149021546E+02  0.35438600914E+02 -0.71976808718E+02  0.82040504435E+02  0.00000000000E+00 0. -1.
      -12    1    3    3    0    0  0.17149021546E+02 -0.35438600914E+02 -0.96164142226E+02  0.10391114293E+03  0.00000000000E+00 0.  1.
</event>
<event>
 5   0  0.2413800E+01  0.8030063E+02  0.7957747E-01  0.1326759E+00
        1   -1    0    0  501    0  0.00000000000E+00  0.00000000000E+00  0.16631137498E+03  0.16631137498E+03  0.00000000000E+00 0. -1.
       -2   -1    0    0    0  501  0.00000000000E+00  0.00000000000E+00 -0.96929487740E+01  0.96929487740E+01  0.00000000000E+00 0.  1.
      -24    2    1    2    0    0  0.00000000000E+00  0.00000000000E+00  0.15661842620E+03  0.17600432375E+03  0.80300626104E+02 0.  0.
       11    1    3    3    0    0 -0.20489587369E+02 -0.20771499461E+02  0.13876402619E+03  0.14179821347E+03  0.00000000000E+00 0. -1.
      -12    1    3    3    0    0  0.20489587369E+02  0.20771499461E+02  0.17854400014E+02  0.34206110276E+02  0.00000000000E+00 0.  1.
</event>
<event>
 5   0  0.2413800E+01  0.8029267E+02  0.7957747E-01  0.1326780E+00
       -4   -1    0    0    0  501  0.00000000000E+00  0.00000000000E+00  0.29573287782E+01  0.29573287782E+01  0.00000000000E+00 0.  1.
        3   -1    0    0  501    0  0.00000000000E+00  0.00000000000E+00 -0.54499455059E+03  0.54499455059E+03  0.00000000000E+00 0. -1.
      -24    2    1    2    0    0  0.00000000000E+00  0.00000000000E+00 -0.54203722181E+03  0.54795187937E+03  0.80292666376E+02 0.  0.
       11    1    3    3    0    0 -0.91336038566E+01 -0.36251237337E+02 -0.17115005631E+03  0.17518537811E+03  0.00000000000E+00 0. -1.
      -12    1    3    3    0    0  0.91336038566E+01  0.36251237337E+02 -0.37088716550E+03  0.37276650126E+03  0.00000000000E+00 0.  1.
</event>
<event>
 5   0  0.2413800E+01  0.8632115E+02  0.7957747E-01  0.1311410E+00
       -4   -1    0    0    0  501  0.00000000000E+00  0.00000000000E+00  0.14435445483E+02  0.14435445483E+02  0.00000000000E+00 0.  1.
        3   -1    0    0  501    0  0.00000000000E+00  0.00000000000E+00 -0.12904591285E+03  0.12904591285E+03  0.00000000000E+00 0. -1.
      -24    2    1    2    0    0  0.00000000000E+00  0.00000000000E+00 -0.11461046737E+03  0.14348135834E+03  0.86321150127E+02 0.  0.
       11    1    3    3    0    0  0.29788457561E+02  0.18924247573E+02 -0.98604854018E+02  0.10473011308E+03  0.00000000000E+00 0. -1.
      -12    1    3    3    0    0 -0.29788457561E+02 -0.18924247573E+02 -0.16005613354E+02  0.38751245257E+02  0.00000000000E+00 0.  1.
</event>
<event>
 5   0  0.2413800E+01  0.1099518E+03  0.7957747E-01  0.1262526E+00
       -4   -1    0    0    0  501  0.00000000000E+00  0.00000000000E+00  0.34578763856E+02  0.34578763856E+02  0.00000000000E+00 0.  1.
        3   -1    0    0  501    0  0.00000000000E+00  0.00000000000E+00 -0.87404796982E+02  0.87404796982E+02  0.00000000000E+00 0. -1.
      -24    2    1    2    0    0  0.00000000000E+00  0.00000000000E+00 -0.52826033126E+02  0.12198356084E+03  0.10995180462E+03 0.  0.
       11    1    3    3    0    0  0.51297814984E+02 -0.32732634956E+01 -0.48044570989E+02  0.70359511635E+02  0.00000000000E+00 0. -1.
      -12    1    3    3    0    0 -0.51297814984E+02  0.32732634956E+01 -0.47814621370E+01  0.51624049204E+02  0.00000000000E+00 0.  1.
</event>
<event>
 5   0  0.2413800E+01  0.7782517E+02  0.7957747E-01  0.1333519E+00
       -2   -1    0    0    0  501  0.00000000000E+00  0.00000000000E+00  0.67949192522E+03  0.67949192522E+03  0.00000000000E+00 0.  1.
        1   -1    0    0  501    0  0.00000000000E+00  0.00000000000E+00 -0.22284136941E+01  0.22284136941E+01  0.00000000000E+00 0. -1.
      -24    2    1    2    0    0  0.00000000000E+00  0.00000000000E+00  0.67726351153E+03  0.68172033892E+03  0.77825165883E+02 0.  0.
       11    1    3    3    0    0  0.14302922463E+02 -0.32118347609E+02  0.19257222820E+03  0.19575552334E+03  0.00000000000E+00 0. -1.
      -12    1    3    3    0    0 -0.14302922463E+02  0.32118347609E+02  0.48469128333E+03  0.48596481558E+03  0.00000000000E+00 0.  1.
</event>
<event>
 5   0  0.2413800E+01  0.7901143E+02  0.7957747E-01  0.1330244E+00
        1   -1    0    0  501    0  0.00000000000E+00  0.00000000000E+00  0.87867062654E+03  0.87867062654E+03  0.00000000000E+00 0. -1.
       -2   -1    0    0    0  501  0.00000000000E+00  0.00000000000E+00 -0.17762077815E+01  0.17762077815E+01  0.00000000000E+00 0.  1.
      -24    2    1    2    0    0  0.00000000000E+00  0.00000000000E+00  0.87689441876E+03  0.88044683432E+03  0.79011432191E+02 0.  0.
       11    1    3    3    0    0  0.14662992477E+02 -0.27134342452E+02  0.16335797780E+03  0.16624411207E+03  0.00000000000E+00 0. -1.
      -12    1    3    3    0    0 -0.14662992477E+02  0.27134342452E+02  0.71353644096E+03  0.71420272225E+03  0.00000000000E+00 0.  1.
</event>
<event>
 5   0  0.2413800E+01  0.8283759E+02  0.7957747E-01  0.1320111E+00
        1   -1    0    0  501    0  0.00000000000E+00  0.00000000000E+00  0.13193911154E+03  0.13193911154E+03  0.00000000000E+00 0. -1.
       -2   -1    0    0    0  501  0.00000000000E+00  0.00000000000E+00 -0.13002335677E+02  0.13002335677E+02  0.00000000000E+00 0.  1.
      -24    2    1    2    0    0  0.00000000000E+00  0.00000000000E+00  0.11893677586E+03  0.14494144722E+03  0.82837590916E+02 0.  0.
       11    1    3    3    0    0 -0.31712887440E+02  0.20144653163E+02  0.89975675356E+02  0.97504545723E+02  0.00000000000E+00 0. -1.
      -12    1    3    3    0    0  0.31712887440E+02 -0.20144653163E+02  0.28961100508E+02  0.47436901495E+02  0.00000000000E+00 0.  1.
</event>
<event>
 5   0  0.2413800E+01  0.8022995E+02  0.7957747E-01  0.1326948E+00
       -2   -1    0    0    0  501  0.00000000000E+00  0.00000000000E+00  0.14206389402E+02  0.14206389402E+02  0.00000000000E+00 0.  1.
        1   -1    0    0  501    0  0.00000000000E+00  0.00000000000E+00 -0.11327376682E+03  0.11327376682E+03  0.00000000000E+00 0. -1.
      -24    2    1    2    0    0  0.00000000000E+00  0.00000000000E+00 -0.99067377417E+02  0.12748015622E+03  0.80229950529E+02 0.  0.
       11    1    3    3    0    0  0.15197824353E+02 -0.23677829414E+02 -0.94967159140E+02  0.99047336087E+02  0.00000000000E+00 0. -1.
      -12    1    3    3    0    0 -0.15197824353E+02  0.23677829414E+02 -0.41002182770E+01  0.28432820134E+02  0.00000000000E+00 0.  1.
</event>
<event>
 5   0  0.2413800E+01  0.8181877E+02  0.7957747E-01  0.1322748E+00
       -2   -1    0    0    0  501  0.00000000000E+00  0.00000000000E+00  0.25030578974E+02  0.25030578974E+02  0.00000000000E+00 0.  1.
        1   -1    0    0  501    0  0.00000000000E+00  0.00000000000E+00 -0.66861321610E+02  0.66861321610E+02  0.00000000000E+00 0. -1.
      -24    2    1    2    0    0  0.00000000000E+00  0.00000000000E+00 -0.41830742636E+02  0.91891900584E+02  0.81818765350E+02 0.  0.
       11    1    3    3    0    0 -0.33367453478E+02  0.46917527807E+01 -0.46970145948E+02  0.57806523042E+02  0.00000000000E+00 0. -1.
      -12    1    3    3    0    0  0.33367453478E+02 -0.46917527807E+01  0.51394033126E+01  0.34085377542E+02  0.00000000000E+00 0.  1.
</event>
<event>
 5   0  0.2413800E+01  0.8071289E+02  0.7957747E-01  0.1325660E+00
        1   -1    0    0  501    0  0.00000000000E+00  0.00000000000E+00  0.53289969741E+01  0.53289969741E+01  0.00000000000E+00 0. -1.
       -2   -1    0    0    0  501  0.00000000000E+00  0.00000000000E+00 -0.30561897569E+03  0.30561897569E+03  0.00000000000E+00 0.  1.
      -24    2    1    2    0    0  0.00000000000E+00  0.00000000000E+00 -0.30028997871E+03  0.31094797266E+03  0.80712888603E+02 0.  0.
       11    1    3    3    0    0 -0.15944483661E+02  0.10428815664E+02 -0.13087537530E+02  0.23114289821E+02  0.00000000000E+00 0. -1.
      -12    1    3    3    0    0  0.15944483661E+02 -0.10428815664E+02 -0.28720244118E+03  0.28783368284E+03  0.00000000000E+00 0.  1.
</event>
<event>
 5   0  0.2413800E+01  0.7951822E+02  0.7957747E-01  0.1328865E+00
       -2   -1    0    0    0  501  0.00000000000E+00  0.00000000000E+00  0.33894084805E+02  0.33894084805E+02  0.00000000000E+00 0.  1.
        1   -1    0    0  501    0  0.00000000000E+00  0.00000000000E+00 -0.46639016316E+02  0.46639016316E+02  0.00000000000E+00 0. -1.
      -24    2    1    2    0    0  0.00000000000E+00  0.00000000000E+00 -0.12744931511E+02  0.80533101121E+02  0.79518218648E+02 0.  0.
       11    1    3    3    0    0  0.58337523746E+01  0.38158763776E+02 -0.16015694637E+02  0.41792659576E+02  0.00000000000E+00 0. -1.
      -12    1    3    3    0    0 -0.58337523746E+01 -0.38158763776E+02  0.32707631258E+01  0.38740441545E+02  0.00000000000E+00 0.  1.
</event>
<event>
 5   0  0.2413800E+01  0.8253993E+02  0.7957747E-01  0.1320877E+00
        3   -1    0    0  501    0  0.00000000000E+00  0.00000000000E+00  0.32375697733E+02  0.32375697733E+02  0.00000000000E+00 0. -1.
       -4   -1    0    0    0  501  0.00000000000E+00  0.00000000000E+00 -0.52607670510E+02  0.52607670510E+02  0.00000000000E+00 0.  1.
      -24    2    1    2    0    0  0.00000000000E+00  0.00000000000E+00 -0.20231972778E+02  0.84983368243E+02  0.82539930673E+02 0.  0.
       11    1    3    3    0    0 -0.27006909287E+02  0.31041379364E+02 -0.68164888808E+01  0.41706173437E+02  0.00000000000E+00 0. -1.
      -12    1    3    3    0    0  0.27006909287E+02 -0.31041379364E+02 -0.13415483897E+02  0.43277194806E+02  0.00000000000E+00 0.  1.
</event>
<event>
 5   0  0.2413800E+01  0.8570323E+02  0.7957747E-01  0.1312919E+00
        1   -1    0    0  501    0  0.00000000000E+00  0.00000000000E+00  0.37268397599E+02  0.37268397599E+02  0.00000000000E+00 0. -1.
       -2   -1    0    0    0  501  0.00000000000E+00  0.00000000000E+00 -0.49271256293E+02  0.49271256293E+02  0.00000000000E+00 0.  1.
      -24    2    1    2    0    0  0.00000000000E+00  0.00000000000E+00 -0.12002858694E+02  0.86539653893E+02  0.85703226771E+02 0.  0.
       11    1    3    3    0    0  0.11054124270E+02 -0.80185415206E+01  0.35012340899E+02  0.37581307677E+02  0.00000000000E+00 0. -1.
      -12    1    3    3    0    0 -0.11054124270E+02  0.80185415206E+01 -0.47015199593E+02  0.48958346216E+02  0.00000000000E+00 0.  1.
</event>
<event>
 5   0  0.2413800E+01  0.8480095E+02  0.7957747E-01  0.1315149E+00
        3   -1    0    0  501    0  0.00000000000E+00  0.00000000000E+00  0.10817450467E+03  0.10817450467E+03  0.00000000000E+00 0. -1.
       -4   -1    0    0    0  501  0.00000000000E+00  0.00000000000E+00 -0.16619444445E+02  0.16619444445E+02  0.00000000000E+00 0.  1.
      -24    2    1    2    0    0  0.00000000000E+00  0.00000000000E+00  0.91555060221E+02  0.12479394911E+03  0.84800947416E+02 0.  0.
       11    1    3    3    0    0 -0.13483548987E+02  0.26617870159E+02  0.90108995637E+02  0.94920746941E+02  0.00000000000E+00 0. -1.
      -12    1    3    3    0    0  0.13483548987E+02 -0.26617870159E+02  0.14460645840E+01  0.29873202170E+02  0.00000000000E+00 0.  1.
</event>
<event>
 5   0  0.2413800E+01  0.7690204E+02  0.7957747E-01  0.1336113E+00
       -2   -1    0    0    0  501  0.00000000000E+00  0.00000000000E+00  0.23218171971E+02  0.23218171971E+02  0.00000000000E+00 0.  1.
        1   -1    0    0  501    0  0.00000000000E+00  0.00000000000E+00 -0.63677745703E+02  0.63677745703E+02  0.00000000000E+00 0. -1.
      -24    2    1    2    0    0  0.00000000000E+00  0.00000000000E+00 -0.40459573732E+02  0.86895917674E+02  0.76902037696E+02 0.  0.
       11    1    3    3    0    0  0.12460009282E+01  0.24818135010E+02 -0.53385639714E+02  0.58885642319E+02  0.00000000000E+00 0. -1.
      -12    1    3    3    0    0 -0.12460009282E+01 -0.24818135010E+02  0.12926065982E+02  0.28010275355E+02  0.00000000000E+00 0.  1.
</event>
<event>
 5   0  0.2413800E+01  0.7993729E+02  0.7957747E-01  0.1327733E+00
        1   -1    0    0  501    0  0.00000000000E+00  0.00000000000E+00  0.64071281321E+01  0.64071281321E+01  0.00000000000E+00 0. -1.
       -2   -1    0    0    0  501  0.00000000000E+00  0.00000000000E+00 -0.24933049941E+03  0.24933049941E+03  0.00000000000E+00 0.  1.
      -24    2    1    2    0    0  0.00000000000E+00  0.00000000000E+00 -0.24292337128E+03  0.25573762754E+03  0.79937286843E+02 0.  0.
       11    1    3    3    0    0 -0.13380426811E+02 -0.21279761407E+02 -0.22047069254E+02  0.33435569830E+02  0.00000000000E+00 0. -1.
      -12    1    3    3    0    0  0.13380426811E+02  0.21279761407E+02 -0.22087630202E+03  0.22230205771E+03  0.00000000000E+00 0.  1.
</event>
<event>
 5   0  0.2413800E+01  0.8044983E+02  0.7957747E-01  0.1326360E+00
        3   -1    0    0  501    0  0.00000000000E+00  0.00000000000E+00  0.11198490507E+03  0.11198490507E+03  0.00000000000E+00 0. -1.
       -4   -1    0    0    0  501  0.00000000000E+00  0.00000000000E+00 -0.14448765289E+02  0.14448765289E+02  0.00000000000E+00 0.  1.
      -24    2    1    2    0    0  0.00000000000E+00  0.00000000000E+00  0.97536139786E+02  0.12643367036E+03  0.80449825589E+02 0.  0.
       11    1    3    3    0    0 -0.28715577100E+02  0.15826989508E+02  0.85388531483E+02  0.91467367262E+02  0.00000000000E+00 0. -1.
      -12    1    3    3    0    0  0.28715577100E+02 -0.15826989508E+02  0.12147608303E+02  0.34966303101E+02  0.00000000000E+00 0.  1.
</event>
<event>
 5   0  0.2413800E+01  0.7601903E+02  0.7957747E-01  0.1338633E+00
        1   -1    0    0  501    0  0.00000000000E+00  0.00000000000E+00  0.26232527218E+03  0.26232527218E+03  0.00000000000E+00 0. -1.
       -2   -1    0    0    0  501  0.00000000000E+00  0.00000000000E+00 -0.55073731256E+01  0.55073731256E+01  0.00000000000E+00 0.  1.
      -24    2    1    2    0    0  0.00000000000E+00  0.00000000000E+00  0.25681789905E+03  0.26783264530E+03  0.76019027991E+02 0.  0.
       11    1    3    3    0    0 -0.31368926592E+02  0.12862513583E+02  0.18895005924E+03  0.19196765014E+03  0.00000000000E+00 0. -1.
      -12    1    3    3    0    0  0.31368926592E+02 -0.12862513583E+02  0.67867839809E+02  0.75864995166E+02  0.00000000000E+00 0.  1.
</event>
<event>
 5   0  0.2413800E+01  0.8020707E+02  0.7957747E-01  0.1327009E+00
        1   -1    0    0  501    0  0.00000000000E+00  0.00000000000E+00  0.86689529944E+01  0.86689529944E+01  0.00000000000E+00 0. -1.
       -2   -1    0    0    0  501  0.00000000000E+00  0.00000000000E+00 -0.18552337102E+03  0.18552337102E+03  0.00000000000E+00 0.  1.
      -24    2    1    2    0    0  0.00000000000E+00  0.00000000000E+00 -0.17685441802E+03  0.19419232401E+03  0.80207066589E+02 0.  0.
       11    1    3    3    0    0  0.95358290845E+01  0.23532402840E+02 -0.13270981244E+02  0.28650042983E+02  0.00000000000E+00 0. -1.
      -12    1    3    3    0    0 -0.95358290845E+01 -0.23532402840E+02 -0.16358343678E+03  0.16554228103E+03  0.00000000000E+00 0.  1.
</event>
<event>
 5   0  0.2413800E+01  0.9091064E+02  0.7957747E-01  0.1300628E+00
        1   -1    0    0  501    0  0.00000000000E+00  0.00000000000E+00  0.68630683507E+01  0.68630683507E+01  0.00000000000E+00 0. -1.
       -2   -1    0    0    0  501  0.00000000000E+00  0.00000000000E+00 -0.30105866641E+03  0.30105866641E+03  0.00000000000E+00 0.  1.
      -24    2    1    2    0    0  0.00000000000E+00  0.00000000000E+00 -0.29419559806E+03  0.30792173476E+03  0.90910641955E+02 0.  0.
       11    1    3    3    0    0  0.11475045858E+02 -0.26921255006E+02 -0.29289893981E+02  0.41404450702E+02  0.00000000000E+00 0. -1.
      -12    1    3    3    0    0 -0.11475045858E+02  0.26921255006E+02 -0.26490570408E+03  0.26651728406E+03  0.00000000000E+00 0.  1.
</event>
<event>
 5   0  0.2413800E+01  0.8127494E+02  0.7957747E-01  0.1324173E+00
       -4   -1    0    0    0  501  0.00000000000E+00  0.00000000000E+00  0.78360994909E+01  0.78360994909E+01  0.00000000000E+00 0.  1.
        3   -1    0    0  501    0  0.00000000000E+00  0.00000000000E+00 -0.21074309128E+03  0.21074309128E+03  0.00000000000E+00 0. -1.
      -24    2    1    2    0    0  0.00000000000E+00  0.00000000000E+00 -0.20290699179E+03  0.21857919077E+03  0.81274936612E+02 0.  0.
       11    1    3    3    0    0 -0.14008926370E+02  0.31597064525E+02 -0.15893199165E+03  0.16264686432E+03  0.00000000000E+00 0. -1.
      -12    1    3    3    0    0  0.14008926370E+02 -0.31597064525E+02 -0.43975000145E+02  0.55932326452E+02  0.00000000000E+00 0.  1.
</event>
<event>
 5   0  0.2413800E+01  0.8225938E+02  0.7957747E-01  0.1321602E+00
       -2   -1    0    0    0  501  0.00000000000E+00  0.00000000000E+00  0.20084841137E+02  0.20084841137E+02  0.00000000000E+00 0.  1.
        1   -1    0    0  501    0  0.00000000000E+00  0.00000000000E+00 -0.84225285400E+02  0.84225285400E+02  0.00000000000E+00 0. -1.
      -24    2    1    2    0    0  0.00000000000E+00  0.00000000000E+00 -0.64140444263E+02  0.10431012654E+03  0.82259381884E+02 0.  0.
       11    1    3    3    0    0  0.21145590415E+02  0.12960848900E+02 -0.73676079690E+02  0.77738563896E+02  0.00000000000E+00 0. -1.
      -12    1    3    3    0    0 -0.21145590415E+02 -0.12960848900E+02  0.95356354268E+01  0.26571562641E+02  0.00000000000E+00 0.  1.
</event>
<event>
 5   0  0.2413800E+01  0.7927882E+02  0.7957747E-01  0.1329515E+00
       -4   -1    0    0    0  501  0.00000000000E+00  0.00000000000E+00  0.37652541571E+02  0.37652541571E+02  0.00000000000E+00 0.  1.
        3   -1    0    0  501    0  0.00000000000E+00  0.00000000000E+00 -0.41731124134E+02  0.41731124134E+02  0.00000000000E+00 0. -1.
      -24    2    1    2    0    0  0.00000000000E+00  0.00000000000E+00 -0.40785825633E+01  0.79383665705E+02  0.79278821542E+02 0.  0.
       11    1    3    3    0    0 -0.22108548934E+02 -0.15758104814E+02 -0.30959611068E+02  0.41177704171E+02  0.00000000000E+00 0. -1.
      -12    1    3    3    0    0  0.22108548934E+02  0.15758104814E+02  0.26881028504E+02  0.38205961534E+02  0.00000000000E+00 0.  1.
</event>
<event>
 5   0  0.2413800E+01  0.7993065E+02  0.7957747E-01  0.1327751E+00
        3   -1    0    0  501    0  0.00000000000E+00  0.00000000000E+00  0.17722471553E+03  0.17722471553E+03  0.00000000000E+00 0. -1.
       -4   -1    0    0    0  501  0.00000000000E+00  0.00000000000E+00 -0.90124403946E+01  0.90124403946E+01  0.00000000000E+00 0.  1.
      -24    2    1    2    0    0  0.00000000000E+00  0.00000000000E+00  0.16821227514E+03  0.18623715593E+03  0.79930649570E+02 0.  0.
       11    1    3    3    0    0 -0.12789896933E+02  0.29424243088E+02  0.28583065178E+02  0.42969281583E+02  0.00000000000E+00 0. -1.
      -12    1    3    3    0    0  0.12789896933E+02 -0.29424243088E+02  0.13962920996E+03  0.14326787434E+03  0.00000000000E+00 0.  1.
</event>
<event>
 5   0  0.2413800E+01  0.8159509E+02  0.7957747E-01  0.1323333E+00
       -2   -1    0    0    0  501  0.00000000000E+00  0.00000000000E+00  0.51166236450E+02  0.51166236450E+02  0.00000000000E+00 0.  1.
        1   -1    0    0  501    0  0.00000000000E+00  0.00000000000E+00 -0.32530038903E+02  0.32530038903E+02  0.00000000000E+00 0. -1.
      -24    2    1    2    0    0  0.00000000000E+00  0.00000000000E+00  0.18636197547E+02  0.83696275352E+02  0.81595089612E+02 0.  0.
       11    1    3    3    0    0  0.39179474235E+02 -0.10514459690E+02  0.48640932658E+01  0.40856388328E+02  0.00000000000E+00 0. -1.
      -12    1    3    3    0    0 -0.39179474235E+02  0.10514459690E+02  0.13772104281E+02  0.42839887024E+02  0.00000000000E+00 0.  1.
</event>
<event>
 5   0  0.2413800E+01  0.7826259E+02  0.7957747E-01  0.1332303E+00
        1   -1    0    0  501    0  0.00000000000E+00  0.00000000000E+00  0.21886099198E+01  0.21886099198E+01  0.00000000000E+00 0. -1.
       -2   -1    0    0    0  501  0.00000000000E+00  0.00000000000E+00 -0.69964885649E+03  0.69964885649E+03  0.00000000000E+00 0.  1.
      -24    2    1    2    0    0  0.00000000000E+00  0.00000000000E+00 -0.69746024657E+03  0.70183746641E+03  0.78262594583E+02 0.  0.
       11    1    3    3    0    0  0.35126992247E+01 -0.21350897499E+02 -0.56341211529E+02  0.60353392584E+02  0.00000000000E+00 0. -1.
      -12    1    3    3    0    0 -0.35126992247E+01  0.21350897499E+02 -0.64111903504E+03  0.64148407383E+03  0.00000000000E+00 0.  1.
</event>
<event>
 5   0  0.2413800E+01  0.7316700E+02  0.7957747E-01  0.1347047E+00
       -2   -1    0    0    0  501  0.00000000000E+00  0.00000000000E+00  0.87650715878E+01  0.87650715878E+01  0.00000000000E+00 0.  1.
        1   -1    0    0  501    0  0.00000000000E+00  0.00000000000E+00 -0.15269154971E+03  0.15269154971E+03  0.00000000000E+00 0. -1.
      -24    2    1    2    0    0  0.00000000000E+00  0.00000000000E+00 -0.14392647813E+03  0.16145662130E+03  0.73166997043E+02 0.  0.
       11    1    3    3    0    0 -0.20437265635E+02 -0.28793694341E+02 -0.93082243395E+02  0.99554320328E+02  0.00000000000E+00 0. -1.
      -12    1    3    3    0    0  0.20437265635E+02  0.28793694341E+02 -0.50844234731E+02  0.61902300973E+02  0.00000000000E+00 0.  1.
</event>
<event>
 5   0  0.2413800E+01  0.7484703E+02  0.7957747E-01  0.1342039E+00
       -2   -1    0    0    0  501  0.00000000000E+00  0.00000000000E+00  0.74590109710E+02  0.74590109710E+02  0.00000000000E+00 0.  1.
        1   -1    0    0  501    0  0.00000000000E+00  0.00000000000E+00 -0.18776207985E+02  0.18776207985E+02  0.00000000000E+00 0. -1.
      -24    2    1    2    0    0  0.00000000000E+00  0.00000000000E+00  0.55813901725E+02  0.93366317695E+02  0.74847028359E+02 0.  0.
       11    1    3    3    0    0 -0.22193673147E+02 -0.19924425542E+02 -0.29093702655E+00  0.29826607338E+02  0.00000000000E+00 0. -1.
      -12    1    3    3    0    0  0.22193673147E+02  0.19924425542E+02  0.56104838751E+02  0.63539710357E+02  0.00000000000E+00 0.  1.
</event>
<event>
 5   0  0.2413800E+01  0.8106225E+02  0.7957747E-01  0.1324734E+00
       -2   -1    0    0    0  501  0.00000000000E+00  0.00000000000E+00  0.22291295081E+02  0.22291295081E+02  0.00000000000E+00 0.  1.
        1   -1    0    0  501    0  0.00000000000E+00  0.00000000000E+00 -0.73695676592E+02  0.73695676592E+02  0.00000000000E+00 0. -1.
      -24    2    1    2    0    0  0.00000000000E+00  0.00000000000E+00 -0.51404381511E+02  0.95986971673E+02  0.81062249491E+02 0.  0.
       11    1    3    3    0    0 -0.40123100918E+01  0.40072547857E+02 -0.31110930177E+02  0.50890055026E+02  0.00000000000E+00 0. -1.
      -12    1    3    3    0    0  0.40123100918E+01 -0.40072547857E+02 -0.20293451334E+02  0.45096916647E+02  0.00000000000E+00 0.  1.
</event>
<event>
 5   0  0.2413800E+01  0.8118552E+02  0.7957747E-01  0.1324409E+00
        1   -1    0    0  501    0  0.00000000000E+00  0.00000000000E+00  0.41316607102E+01  0.41316607102E+01  0.00000000000E+00 0. -1.
       -2   -1    0    0    0  501  0.00000000000E+00  0.00000000000E+00 -0.39881598645E+03  0.39881598645E+03  0.00000000000E+00 0.  1.
      -24    2    1    2    0    0  0.00000000000E+00  0.00000000000E+00 -0.39468432574E+03  0.40294764716E+03  0.81185524370E+02 0.  0.
       11    1    3    3    0    0  0.17031241957E+02 -0.25325249403E+02 -0.64501849090E+02  0.71357690518E+02  0.00000000000E+00 0. -1.
      -12    1    3    3    0    0 -0.17031241957E+02  0.25325249403E+02 -0.33018247665E+03  0.33158995665E+03  0.00000000000E+00 0.  1.
</event>
<event>
 5   0  0.2413800E+01  0.8203231E+02  0.7957747E-01  0.1322192E+00
        1   -1    0    0  501    0  0.00000000000E+00  0.00000000000E+00  0.60244320049E+03  0.60244320049E+03  0.00000000000E+00 0. -1.
       -2   -1    0    0    0  501  0.00000000000E+00  0.00000000000E+00 -0.27925039601E+01  0.27925039601E+01  0.00000000000E+00 0.  1.
      -24    2    1    2    0    0  0.00000000000E+00  0.00000000000E+00  0.59965069653E+03  0.60523570445E+03  0.82032311271E+02 0.  0.
       11    1    3    3    0    0 -0.31230929957E+02  0.14256946389E+02  0.13423966947E+03  0.13856016876E+03  0.00000000000E+00 0. -1.
      -12    1    3    3    0    0  0.31230929957E+02 -0.14256946389E+02  0.46541102706E+03  0.46667553569E+03  0.00000000000E+00 0.  1.
</event>
<event>
 5   0  0.2413800E+01  0.7855146E+02  0.7957747E-01  0.1331506E+00
       -4   -1    0    0    0  501  0.00000000000E+00  0.00000000000E+00  0.29141644997E+02  0.29141644997E+02  0.00000000000E+00 0.  1.
        3   -1    0    0  501    0  0.00000000000E+00  0.00000000000E+00 -0.52933975510E+02  0.52933975510E+02  0.00000000000E+00 0. -1.
      -24    2    1    2    0    0  0.00000000000E+00  0.00000000000E+00 -0.23792330513E+02  0.82075620506E+02  0.78551463960E+02 0.  0.
       11    1    3    3    0    0 -0.17542668201E+01 -0.10625856553E+02 -0.51361021093E+02  0.52478002699E+02  0.00000000000E+00 0. -1.
      -12    1    3    3    0    0  0.17542668201E+01  0.10625856553E+02  0.27568690580E+02  0.29597617807E+02  0.00000000000E+00 0.  1.
</event>
<event>
 5   0  0.2413800E+01  0.8092849E+02  0.7957747E-01  0.1325088E+00
       -2   -1    0    0    0  501  0.00000000000E+00  0.00000000000E+00  0.98905139208E+01  0.98905139208E+01  0.00000000000E+00 0.  1.
        1   -1    0    0  501    0  0.00000000000E+00  0.00000000000E+00 -0.16554802430E+03  0.16554802430E+03  0.00000000000E+00 0. -1.
      -24    2    1    2    0    0  0.00000000000E+00  0.00000000000E+00 -0.15565751038E+03  0.17543853823E+03  0.80928487912E+02 0.  0.
       11    1    3    3    0    0  0.33900536445E+02 -0.22091908967E+02 -0.77314721354E+02  0.87263193565E+02  0.00000000000E+00 0. -1.
      -12    1    3    3    0    0 -0.33900536445E+02  0.22091908967E+02 -0.78342789029E+02  0.88175344660E+02  0.00000000000E+00 0.  1.
</event>
<event>
 5   0  0.2413800E+01  0.8062300E+02  0.7957747E-01  0.1325899E+00
       -2   -1    0    0    0  501  0.00000000000E+00  0.00000000000E+00  0.19164878785E+02  0.19164878785E+02  0.00000000000E+00 0.  1.
        1   -1    0    0  501    0  0.00000000000E+00  0.00000000000E+00 -0.84791402745E+02  0.84791402745E+02  0.00000000000E+00 0. -1.
      -24    2    1    2    0    0  0.00000000000E+00  0.00000000000E+00 -0.65626523960E+02  0.10395628153E+03  0.80622998100E+02 0.  0.
       11    1    3    3    0    0  0.38433425417E+02  0.10890547520E+02 -0.39790965082E+02  0.56383092473E+02  0.00000000000E+00 0. -1.
      -12    1    3    3    0    0 -0.38433425417E+02 -0.10890547520E+02 -0.25835558878E+02  0.47573189058E+02  0.00000000000E+00 0.  1.
</event>
<event>
 5   0  0.2413800E+01  0.8111249E+02  0.7957747E-01  0.1324602E+00
       -4   -1    0    0    0  501  0.00000000000E+00  0.00000000000E+00  0.51162276021E+03  0.51162276021E+03  0.00000000000E+00 0.  1.
        3   -1    0    0  501    0  0.00000000000E+00  0.00000000000E+00 -0.32148860026E+01  0.32148860026E+01  0.00000000000E+00 0. -1.
      -24    2    1    2    0    0  0.00000000000E+00  0.00000000000E+00  0.50840787421E+03  0.51483764622E+03  0.81112486102E+02 0.  0.
       11    1    3    3    0    0 -0.18011560650E+02 -0.29414869153E+02  0.11878990296E+03  0.12369596553E+03  0.00000000000E+00 0. -1.
      -12    1    3    3    0    0  0.18011560650E+02  0.29414869153E+02  0.38961797125E+03  0.39114168068E+03  0.00000000000E+00 0.  1.
</event>
<event>
 5   0  0.2413800E+01  0.8155978E+02  0.7957747E-01  0.1323425E+00
       -2   -1    0    0    0  501  0.00000000000E+00  0.00000000000E+00  0.10554308016E+02  0.10554308016E+02  0.00000000000E+00 0.  1.
        1   -1    0    0  501    0  0.00000000000E+00  0.00000000000E+00 -0.15756594229E+03  0.15756594229E+03  0.00000000000E+00 0. -1.
      -24    2    1    2    0    0  0.00000000000E+00  0.00000000000E+00 -0.14701163427E+03  0.16812025031E+03  0.81559781457E+02 0.  0.
       11    1    3    3    0    0 -0.29684956426E+02  0.11608578469E+02 -0.12593955273E+03  0.12991045637E+03  0.00000000000E+00 0. -1.
      -12    1    3    3    0    0  0.29684956426E+02 -0.11608578469E+02 -0.21072081541E+02  0.38209793935E+02  0.00000000000E+00 0.  1.
</event>
<event>
 5   0  0.2413800E+01  0.8010277E+02  0.7957747E-01  0.1327289E+00
       -2   -1    0    0    0  501  0.00000000000E+00  0.00000000000E+00  0.19536059410E+02  0.19536059410E+02  0.00000000000E+00 0.  1.
        1   -1    0    0  501    0  0.00000000000E+00  0.00000000000E+00 -0.82110382765E+02  0.82110382765E+02  0.00000000000E+00 0. -1.
      -24    2    1    2    0    0  0.00000000000E+00  0.00000000000E+00 -0.62574323356E+02  0.10164644218E+03  0.80102766890E+02 0.  0.
       11    1    3    3    0    0 -0.38134677632E+01 -0.24136332098E+02 -0.71555265459E+02  0.75612572225E+02  0.00000000000E+00 0. -1.
      -12    1    3    3    0    0  0.38134677632E+01  0.24136332098E+02  0.89809421038E+01  0.26033869950E+02  0.00000000000E+00 0.  1.
</event>
<event>
 5   0  0.2413800E+01  0.7971848E+02  0.7957747E-01  0.1328323E+00
       -2   -1    0    0    0  501  0.00000000000E+00  0.00000000000E+00  0.17766826657E+02  0.17766826657E+02  0.00000000000E+00 0.  1.
        1   -1    0    0  501    0  0.00000000000E+00  0.00000000000E+00 -0.89422785679E+02  0.89422785679E+02  0.00000000000E+00 0. -1.
      -24    2    1    2    0    0  0.00000000000E+00  0.00000000000E+00 -0.71655959022E+02  0.10718961234E+03  0.79718482984E+02 0.  0.
       11    1    3    3    0    0 -0.28837653787E+02 -0.26083058902E+02 -0.47613235173E+02  0.61473216942E+02  0.00000000000E+00 0. -1.
      -12    1    3    3    0    0  0.28837653787E+02  0.26083058902E+02 -0.24042723849E+02  0.45716395393E+02  0.00000000000E+00 0.  1.
</event>
<event>
 5   0  0.2413800E+01  0.7616406E+02  0.7957747E-01  0.1338216E+00
       -2   -1    0    0    0  501  0.00000000000E+00  0.00000000000E+00  0.78334818398E+01  0.78334818398E+01  0.00000000000E+00 0.  1.
        1   -1    0    0  501    0  0.00000000000E+00  0.00000000000E+00 -0.18513362079E+03  0.18513362079E+03  0.00000000000E+00 0. -1.
      -24    2    1    2    0    0  0.00000000000E+00  0.00000000000E+00 -0.17730013895E+03  0.19296710263E+03  0.76164055996E+02 0.  0.
       11    1    3    3    0    0 -0.11324575026E+02 -0.33848387468E+02 -0.12228856851E+03  0.12739094678E+03  0.00000000000E+00 0. -1.
      -12    1    3    3    0    0  0.11324575026E+02  0.33848387468E+02 -0.55011570448E+02  0.65576155856E+02  0.00000000000E+00 0.  1.
</event>
<event>
 5   0  0.2413800E+01  0.9273254E+02  0.7957747E-01  0.1296546E+00
        1   -1    0    0  501    0  0.00000000000E+00  0.00000000000E+00  0.15748899183E+02  0.15748899183E+02  0.00000000000E+00 0. -1.
       -2   -1    0    0    0  501  0.00000000000E+00  0.00000000000E+00 -0.13650673300E+03  0.13650673300E+03  0.00000000000E+00 0.  1.
      -24    2    1    2    0    0  0.00000000000E+00  0.00000000000E+00 -0.12075783382E+03  0.15225563219E+03  0.92732535300E+02 0.  0.
       11    1    3    3    0    0  0.42960100393E+02 -0.13259491101E+02 -0.41770806292E+02  0.61369247904E+02  0.00000000000E+00 0. -1.
      -12    1    3    3    0    0 -0.42960100393E+02  0.13259491101E+02 -0.78987027528E+02  0.90886384282E+02  0.00000000000E+00 0.  1.
</event>
<event>
 5   0  0.2413800E+01  0.8636073E+02  0.7957747E-01  0.1311314E+00
       -4   -1    0    0    0  501  0.00000000000E+00  0.00000000000E+00  0.20191973360E+03  0.20191973360E+03  0.00000000000E+00 0.  1.
        3   -1    0    0  501    0  0.00000000000E+00  0.00000000000E+00 -0.92340846726E+01  0.92340846726E+01  0.00000000000E+00 0. -1.
      -24    2    1    2    0    0  0.00000000000E+00  0.00000000000E+00  0.19268564893E+03  0.21115381827E+03  0.86360729898E+02 0.  0.
       11    1    3    3    0    0 -0.33735533814E+01  0.30734837400E+02  0.22645292137E+02  0.38325192086E+02  0.00000000000E+00 0. -1.
      -12    1    3    3    0    0  0.33735533814E+01 -0.30734837400E+02  0.17004035679E+03  0.17282862619E+03  0.00000000000E+00 0.  1.
</event>
<event>
 5   0  0.2413800E+01  0.8012964E+02  0.7957747E-01  0.1327217E+00
       -2   -1    0    0    0  501  0.00000000000E+00  0.00000000000E+00  0.53689554590E+03  0.53689554590E+03  0.00000000000E+00 0.  1.
        1   -1    0    0  501    0  0.00000000000E+00  0.00000000000E+00 -0.29897617996E+01  0.29897617996E+01  0.00000000000E+00 0. -1.
      -24    2    1    2    0    0  0.00000000000E+00  0.00000000000E+00  0.53390578410E+03  0.53988530770E+03  0.80129639797E+02 0.  0.
       11    1    3    3    0    0  0.22843248452E+02 -0.51747231600E+01  0.47943259026E+02  0.53358671701E+02  0.00000000000E+00 0. -1.
      -12    1    3    3    0    0 -0.22843248452E+02  0.51747231600E+01  0.48596252507E+03  0.48652663600E+03  0.00000000000E+00 0.  1.
</event>
<event>
 5   0  0.2413800E+01  0.8502076E+02  0.7957747E-01  0.1314603E+00
       -2   -1    0    0    0  501  0.00000000000E+00  0.00000000000E+00  0.51160576236E+02  0.51160576236E+02  0.00000000000E+00 0.  1.
        1   -1    0    0  501    0  0.00000000000E+00  0.00000000000E+00 -0.35322751265E+02  0.35322751265E+02  0.00000000000E+00 0. -1.
      -24    2    1    2    0    0  0.00000000000E+00  0.00000000000E+00  0.15837824972E+02  0.86483327501E+02  0.85020757676E+02 0.  0.
       11    1    3    3    0    0  0.24147702690E+02  0.10385331472E+02 -0.26064872503E+02  0.37018160862E+02  0.00000000000E+00 0. -1.
      -12    1    3    3    0    0 -0.24147702690E+02 -0.10385331472E+02  0.41902697474E+02  0.49465166639E+02  0.00000000000E+00 0.  1.
</event>
<event>
 5   0  0.2413800E+01  0.8162193E+02  0.7957747E-01  0.1323262E+00
        3   -1    0    0  501    0  0.00000000000E+00  0.00000000000E+00  0.90811328973E+01  0.90811328973E+01  0.00000000000E+00 0. -1.
       -4   -1    0    0    0  501  0.00000000000E+00  0.00000000000E+00 -0.18340606852E+03  0.18340606852E+03  0.00000000000E+00 0.  1.
      -24    2    1    2    0    0  0.00000000000E+00  0.00000000000E+00 -0.17432493563E+03  0.19248720142E+03  0.81621930446E+02 0.  0.
       11    1    3    3    0    0  0.19057291068E+02 -0.19713780912E+02 -0.15876854549E+02  0.31684191817E+02  0.00000000000E+00 0. -1.
      -12    1    3    3    0    0 -0.19057291068E+02  0.19713780912E+02 -0.15844808108E+03  0.16080300960E+03  0.00000000000E+00 0.  1.
</event>
<event>
 5   0  0.2413800E+01  0.8047935E+02  0.7957747E-01  0.1326281E+00
       -2   -1    0    0    0  501  0.00000000000E+00  0.00000000000E+00  0.36631810306E+02  0.36631810306E+02  0.00000000000E+00 0.  1.
        1   -1    0    0  501    0  0.00000000000E+00  0.00000000000E+00 -0.44202878454E+02  0.44202878454E+02  0.00000000000E+00 0. -1.
      -24    2    1    2    0    0  0.00000000000E+00  0.00000000000E+00 -0.75710681472E+01  0.80834688760E+02  0.80479350358E+02 0.  0.
       11    1    3    3    0    0  0.11239212300E+02 -0.13961050798E+02 -0.39972382341E+02  0.43806645415E+02  0.00000000000E+00 0. -1.
      -12    1    3    3    0    0 -0.11239212300E+02  0.13961050798E+02  0.32401314194E+02  0.37028043345E+02  0.00000000000E+00 0.  1.
</event>
<event>
 5   0  0.2413800E+01  0.8054951E+02  0.7957747E-01  0.1326094E+00
        1   -1    0    0  501    0  0.00000000000E+00  0.00000000000E+00  0.32385179581E+02  0.32385179581E+02  0.00000000000E+00 0. -1.
       -2   -1    0    0    0  501  0.00000000000E+00  0.00000000000E+00 -0.50086359535E+02  0.50086359535E+02  0.00000000000E+00 0.  1.
      -24    2    1    2    0    0  0.00000000000E+00  0.00000000000E+00 -0.17701179954E+02  0.82471539117E+02  0.80549506470E+02 0.  0.
       11    1    3    3    0    0 -0.24015093944E+02 -0.21368573038E+02  0.15991824444E+02  0.35903747714E+02  0.00000000000E+00 0. -1.
      -12    1    3    3    0    0  0.24015093944E+02  0.21368573038E+02 -0.33693004398E+02  0.46567791403E+02  0.00000000000E+00 0.  1.
</event>
<event>
 5   0  0.2413800E+01  0.8074754E+02  0.7957747E-01  0.1325568E+00
       -4   -1    0    0    0  501  0.00000000000E+00  0.00000000000E+00  0.18280706097E+03  0.18280706097E+03  0.00000000000E+00 0.  1.
        3   -1    0    0  501    0  0.00000000000E+00  0.00000000000E+00 -0.89167299011E+01  0.89167299011E+01  0.00000000000E+00 0. -1.
      -24    2    1    2    0    0  0.00000000000E+00  0.00000000000E+00  0.17389033107E+03  0.19172379087E+03  0.80747537095E+02 0.  0.
       11    1    3    3    0    0  0.21708280549E+02  0.30379002313E+02  0.50476655411E+02  0.62785555404E+02  0.00000000000E+00 0. -1.
      -12    1    3    3    0    0 -0.21708280549E+02 -0.30379002313E+02  0.12341367566E+03  0.12893823547E+03  0.00000000000E+00 0.  1.
</event>
<event>
 5   0  0.2413800E+01  0.7855693E+02  0.7957747E-01  0.1331491E+00
       -2   -1    0    0    0  501  0.00000000000E+00  0.00000000000E+00  0.77166869650E+01  0.77166869650E+01  0.00000000000E+00 0.  1.
        1   -1    0    0  501    0  0.00000000000E+00  0.00000000000E+00 -0.19993007761E+03  0.19993007761E+03  0.00000000000E+00 0. -1.
      -24    2    1    2    0    0  0.00000000000E+00  0.00000000000E+00 -0.19221339064E+03  0.20764676457E+03  0.78556930281E+02 0.  0.
       11    1    3    3    0    0  0.11787070718E+02 -0.37455161421E+02 -0.93498460475E+02  0.10140900485E+03  0.00000000000E+00 0. -1.
      -12    1    3    3    0    0 -0.11787070718E+02  0.37455161421E+02 -0.98714930167E+02  0.10623775972E+03  0.00000000000E+00 0.  1.
</event>
<event>
 5   0  0.2413800E+01  0.8059735E+02  0.7957747E-01  0.1325967E+00
       -2   -1    0    0    0  501  0.00000000000E+00  0.00000000000E+00  0.63113103084E+02  0.63113103084E+02  0.00000000000E+00 0.  1.
        1   -1    0    0  501    0  0.00000000000E+00  0.00000000000E+00 -0.25731317644E+02  0.25731317644E+02  0.00000000000E+00 0. -1.
      -24    2    1    2    0    0  0.00000000000E+00  0.00000000000E+00  0.37381785441E+02  0.88844420728E+02  0.80597352387E+02 0.  0.
       11    1    3    3    0    0  0.30070978808E+02  0.12319599193E+02 -0.75793021377E+01  0.33368879388E+02  0.00000000000E+00 0. -1.
      -12    1    3    3    0    0 -0.30070978808E+02 -0.12319599193E+02  0.44961087578E+02  0.55475541340E+02  0.00000000000E+00 0.  1.
</event>
<event>
 5   0  0.2413800E+01  0.7957574E+02  0.7957747E-01  0.1328709E+00
       -2   -1    0    0    0  501  0.00000000000E+00  0.00000000000E+00  0.26703050241E+03  0.26703050241E+03  0.00000000000E+00 0.  1.
        1   -1    0    0  501    0  0.00000000000E+00  0.00000000000E+00 -0.59284404808E+01  0.59284404808E+01  0.00000000000E+00 0. -1.
      -24    2    1    2    0    0  0.00000000000E+00  0.00000000000E+00  0.26110206193E+03  0.27295894289E+03  0.79575736002E+02 0.  0.
       11    1    3    3    0    0 -0.37817630371E+02 -0.56959628705E+01  0.92903786863E+02  0.10046756080E+03  0.00000000000E+00 0. -1.
      -12    1    3    3    0    0  0.37817630371E+02  0.56959628705E+01  0.16819827506E+03  0.17249138209E+03  0.00000000000E+00 0.  1.
</event>
<event>
 5   0  0.2413800E+01  0.8006710E+02  0.7957747E-01  0.1327385E+00
        1   -1    0    0  501    0  0.00000000000E+00  0.00000000000E+00  0.22576779110E+03  0.22576779110E+03  0.00000000000E+00 0. -1.
       -2   -1    0    0    0  501  0.00000000000E+00  0.00000000000E+00 -0.70988210550E+01  0.70988210550E+01  0.00000000000E+00 0.  1.
      -24    2    1    2    0    0  0.00000000000E+00  0.00000000000E+00  0.21866897005E+03  0.23286661216E+03  0.80067100585E+02 0.  0.
       11    1    3    3    0    0  0.39150738004E+02  0.47836823713E+01  0.12927793041E+03  0.13516081975E+03  0.00000000000E+00 0. -1.
      -12    1    3    3    0    0 -0.39150738004E+02 -0.47836823713E+01  0.89391039637E+02  0.97705792411E+02  0.00000000000E+00 0.  1.
</event>
<event>
 5   0  0.2413800E+01  0.8060996E+02  0.7957747E-01  0.1325933E+00
        1   -1    0    0  501    0  0.00000000000E+00  0.00000000000E+00  0.69993968649E+02  0.69993968649E+02  0.00000000000E+00 0. -1.
       -2   -1    0    0    0  501  0.00000000000E+00  0.00000000000E+00 -0.23209020755E+02  0.23209020755E+02  0.00000000000E+00 0.  1.
      -24    2    1    2    0    0  0.00000000000E+00  0.00000000000E+00  0.46784947894E+02  0.93202989404E+02  0.80609961446E+02 0.  0.
       11    1    3    3    0    0 -0.26470093042E+02  0.17168905714E+02  0.52391619652E+02  0.61158147117E+02  0.00000000000E+00 0. -1.
      -12    1    3    3    0    0  0.26470093042E+02 -0.17168905714E+02 -0.56066717572E+01  0.32044842287E+02  0.00000000000E+00 0.  1.
</event>
<event>
 5   0  0.2413800E+01  0.7791552E+02  0.7957747E-01  0.1333267E+00
       -2   -1    0    0    0  501  0.00000000000E+00  0.00000000000E+00  0.83084545352E+01  0.83084545352E+01  0.00000000000E+00 0.  1.
        1   -1    0    0  501    0  0.00000000000E+00  0.00000000000E+00 -0.18267022448E+03  0.18267022448E+03  0.00000000000E+00 0. -1.
      -24    2    1    2    0    0  0.00000000000E+00  0.00000000000E+00 -0.17436176995E+03  0.19097867902E+03  0.77915524899E+02 0.  0.
       11    1    3    3    0    0 -0.35077725628E+02 -0.17761218863E+01 -0.12849523670E+03  0.13320896103E+03  0.00000000000E+00 0. -1.
      -12    1    3    3    0    0  0.35077725628E+02  0.17761218863E+01 -0.45866533247E+02  0.57769717987E+02  0.00000000000E+00 0.  1.
</event>
<event>
 5   0  0.2413800E+01  0.8612997E+02  0.7957747E-01  0.1311875E+00
       -2   -1    0    0    0  501  0.00000000000E+00  0.00000000000E+00  0.17691047908E+02  0.17691047908E+02  0.00000000000E+00 0.  1.
        1   -1    0    0  501    0  0.00000000000E+00  0.00000000000E+00 -0.10483229202E+03  0.10483229202E+03  0.00000000000E+00 0. -1.
      -24    2    1    2    0    0  0.00000000000E+00  0.00000000000E+00 -0.87141244110E+02  0.12252333993E+03  0.86129973886E+02 0.  0.
       11    1    3    3    0    0 -0.12007443650E+02  0.20293372150E+02 -0.94833279295E+02  0.97720778333E+02  0.00000000000E+00 0. -1.
      -12    1    3    3    0    0  0.12007443650E+02 -0.20293372150E+02  0.76920351853E+01  0.24802561592E+02  0.00000000000E+00 0.  1.
</event>
<event>
 5   0  0.2413800E+01  0.7783741E+02  0.7957747E-01  0.1333484E+00
       -4   -1    0    0    0  501  0.00000000000E+00  0.00000000000E+00  0.92142275103E+01  0.92142275103E+01  0.00000000000E+00 0.  1.
        3   -1    0    0  501    0  0.00000000000E+00  0.00000000000E+00 -0.16438335969E+03  0.16438335969E+03  0.00000000000E+00 0. -1.
      -24    2    1    2    0    0  0.00000000000E+00  0.00000000000E+00 -0.15516913218E+03  0.17359758720E+03  0.77837411957E+02 0.  0.
       11    1    3    3    0    0 -0.62405793457E+00  0.31892581925E+02 -0.12731181220E+03  0.13124718571E+03  0.00000000000E+00 0. -1.
      -12    1    3    3    0    0  0.62405793457E+00 -0.31892581925E+02 -0.27857319974E+02  0.42350401489E+02  0.00000000000E+00 0.  1.
</event>
<event>
 5   0  0.2413800E+01  0.8116843E+02  0.7957747E-01  0.1324454E+00
        3   -1    0    0  501    0  0.00000000000E+00  0.00000000000E+00  0.72612957385E+02  0.72612957385E+02  0.00000000000E+00 0. -1.
       -4   -1    0    0    0  501  0.00000000000E+00  0.00000000000E+00 -0.22682980821E+02  0.22682980821E+02  0.00000000000E+00 0.  1.
      -24    2    1    2    0    0  0.00000000000E+00  0.00000000000E+00  0.49929976564E+02  0.95295938207E+02  0.81168425382E+02 0.  0.
       11    1    3    3    0    0  0.13431358054E+02  0.55353941714E+01  0.69455764828E+02  0.70958757287E+02  0.00000000000E+00 0. -1.
      -12    1    3    3    0    0 -0.13431358054E+02 -0.55353941714E+01 -0.19525788264E+02  0.24337180920E+02  0.00000000000E+00 0.  1.
</event>
<event>
 5   0  0.2413800E+01  0.8192751E+02  0.7957747E-01  0.1322465E+00
        3   -1    0    0  501    0  0.00000000000E+00  0.00000000000E+00  0.12056068963E+03  0.12056068963E+03  0.00000000000E+00 0. -1.
       -4   -1    0    0    0  501  0.00000000000E+00  0.00000000000E+00 -0.13918543065E+02  0.13918543065E+02  0.00000000000E+00 0.  1.
      -24    2    1    2    0    0  0.00000000000E+00  0.00000000000E+00  0.10664214656E+03  0.13447923269E+03  0.81927508213E+02 0.  0.
       11    1    3    3    0    0 -0.25204341546E+02  0.37788948796E+01  0.10596224775E+03  0.10898411273E+03  0.00000000000E+00 0. -1.
      -12    1    3    3    0    0  0.25204341546E+02 -0.37788948796E+01  0.67989880861E+00  0.25495119958E+02  0.00000000000E+00 0.  1.
</event>
<event>
 5   0  0.2413800E+01  0.7943107E+02  0.7957747E-01  0.1329101E+00
       -4   -1    0    0    0  501  0.00000000000E+00  0.00000000000E+00  0.34075334621E+02  0.34075334621E+02  0.00000000000E+00 0.  1.
        3   -1    0    0  501    0  0.00000000000E+00  0.00000000000E+00 -0.46289304675E+02  0.46289304675E+02  0.00000000000E+00 0. -1.
      -24    2    1    2    0    0  0.00000000000E+00  0.00000000000E+00 -0.12213970054E+02  0.80364639296E+02  0.79431065614E+02 0.  0.
       11    1    3    3    0    0 -0.18735434156E+02  0.27907137809E+02 -0.27509780726E+02  0.43435157065E+02  0.00000000000E+00 0. -1.
      -12    1    3    3    0    0  0.18735434156E+02 -0.27907137809E+02  0.15295810672E+02  0.36929482230E+02  0.00000000000E+00 0.  1.
</event>
<event>
 5   0  0.2413800E+01  0.7246729E+02  0.7957747E-01  0.1349178E+00
       -4   -1    0    0    0  501  0.00000000000E+00  0.00000000000E+00  0.39004032701E+02  0.39004032701E+02  0.00000000000E+00 0.  1.
        3   -1    0    0  501    0  0.00000000000E+00  0.00000000000E+00 -0.33660030666E+02  0.33660030666E+02  0.00000000000E+00 0. -1.
      -24    2    1    2    0    0  0.00000000000E+00  0.00000000000E+00  0.53440020354E+01  0.72664063367E+02  0.72467287429E+02 0.  0.
       11    1    3    3    0    0  0.34009024895E+02  0.49261390333E+01 -0.88481608408E+01  0.35484793509E+02  0.00000000000E+00 0. -1.
      -12    1    3    3    0    0 -0.34009024895E+02 -0.49261390333E+01  0.14192162876E+02  0.37179269858E+02  0.00000000000E+00 0.  1.
</event>
<event>
 5   0  0.2413800E+01  0.8218938E+02  0.7957747E-01  0.1321784E+00
       -2   -1    0    0    0  501  0.00000000000E+00  0.00000000000E+00  0.13511790074E+03  0.13511790074E+03  0.00000000000E+00 0.  1.
        1   -1    0    0  501    0  0.00000000000E+00  0.00000000000E+00 -0.12498519502E+02  0.12498519502E+02  0.00000000000E+00 0. -1.
      -24    2    1    2    0    0  0.00000000000E+00  0.00000000000E+00  0.12261938123E+03  0.14761642024E+03  0.82189384166E+02 0.  0.
       11    1    3    3    0    0 -0.10275724482E+02 -0.37737414527E+02  0.38657296695E+02  0.54991722619E+02  0.00000000000E+00 0. -1.
      -12    1    3    3    0    0  0.10275724482E+02  0.37737414527E+02  0.83962084539E+02  0.92624697618E+02  0.00000000000E+00 0.  1.
</event>
<event>
 5   0  0.2413800E+01  0.8000947E+02  0.7957747E-01  0.1327539E+00
        1   -1    0    0  501    0  0.00000000000E+00  0.00000000000E+00  0.94607859622E+01  0.94607859622E+01  0.00000000000E+00 0. -1.
       -2   -1    0    0    0  501  0.00000000000E+00  0.00000000000E+00 -0.16915918533E+03  0.16915918533E+03  0.00000000000E+00 0.  1.
      -24    2    1    2    0    0  0.00000000000E+00  0.00000000000E+00 -0.15969839937E+03  0.17861997130E+03  0.80009470589E+02 0.  0.
       11    1    3    3    0    0  0.14519969307E+02  0.37107352494E+02 -0.71926635322E+02  0.82226674422E+02  0.00000000000E+00 0. -1.
      -12    1    3    3    0    0 -0.14519969307E+02 -0.37107352494E+02 -0.87771764051E+02  0.96393296875E+02  0.00000000000E+00 0.  1.
</event>
<event>
 5   0  0.2413800E+01  0.8066409E+02  0.7957747E-01  0.1325789E+00
        1   -1    0    0  501    0  0.00000000000E+00  0.00000000000E+00  0.10788149103E+03  0.10788149103E+03  0.00000000000E+00 0. -1.
       -2   -1    0    0    0  501  0.00000000000E+00  0.00000000000E+00 -0.15078342065E+02  0.15078342065E+02  0.00000000000E+00 0.  1.
      -24    2    1    2    0    0  0.00000000000E+00  0.00000000000E+00  0.92803148963E+02  0.12295983309E+03  0.80664094222E+02 0.  0.
       11    1    3    3    0    0  0.38486571495E+02  0.96900565466E+01  0.57347239812E+02  0.69741087569E+02  0.00000000000E+00 0. -1.
      -12    1    3    3    0    0 -0.38486571495E+02 -0.96900565466E+01  0.35455909152E+02  0.53218745524E+02  0.00000000000E+00 0.  1.
</event>
<event>
 5   0  0.2413800E+01  0.8074765E+02  0.7957747E-01  0.1325567E+00
        1   -1    0    0  501    0  0.00000000000E+00  0.00000000000E+00  0.19945893130E+03  0.19945893130E+03  0.00000000000E+00 0. -1.
       -2   -1    0    0    0  501  0.00000000000E+00  0.00000000000E+00 -0.81723380996E+01  0.81723380996E+01  0.00000000000E+00 0.  1.
      -24    2    1    2    0    0  0.00000000000E+00  0.00000000000E+00  0.19128659320E+03  0.20763126940E+03  0.80747651942E+02 0.  0.
       11    1    3    3    0    0  0.35250216254E+02  0.17474026845E+02  0.72340694615E+02  0.82347407109E+02  0.00000000000E+00 0. -1.
      -12    1    3    3    0    0 -0.35250216254E+02 -0.17474026845E+02  0.11894589858E+03  0.12528386229E+03  0.00000000000E+00 0.  1.
</event>
<event>
 5   0  0.2413800E+01  0.8097239E+02  0.7957747E-01  0.1324972E+00
       -2   -1    0    0    0  501  0.00000000000E+00  0.00000000000E+00  0.14138979689E+03  0.14138979689E+03  0.00000000000E+00 0.  1.
        1   -1    0    0  501    0  0.00000000000E+00  0.00000000000E+00 -0.11593001564E+02  0.11593001564E+02  0.00000000000E+00 0. -1.
      -24    2    1    2    0    0  0.00000000000E+00  0.00000000000E+00  0.12979679533E+03  0.15298279845E+03  0.80972393729E+02 0.  0.
       11    1    3    3    0    0 -0.31119350950E+02 -0.66650062576E+01  0.17616447488E+02  0.36375479846E+02  0.00000000000E+00 0. -1.
      -12    1    3    3    0    0  0.31119350950E+02  0.66650062576E+01  0.11218034784E+03  0.11660731861E+03  0.00000000000E+00 0.  1.
</event>
<event>
 5   0  0.2413800E+01  0.8081931E+02  0.7957747E-01  0.1325377E+00
       -4   -1    0    0    0  501  0.00000000000E+00  0.00000000000E+00  0.39267083257E+02  0.39267083257E+02  0.00000000000E+00 0.  1.
        3   -1    0    0  501    0  0.00000000000E+00  0.00000000000E+00 -0.41585477618E+02  0.41585477618E+02  0.00000000000E+00 0. -1.
      -24    2    1    2    0    0  0.00000000000E+00  0.00000000000E+00 -0.23183943619E+01  0.80852560875E+02  0.80819314818E+02 0.  0.
       11    1    3    3    0    0  0.25964194463E+02 -0.52135813954E+01 -0.31694196963E+02  0.41301851608E+02  0.00000000000E+00 0. -1.
      -12    1    3    3    0    0 -0.25964194463E+02  0.52135813954E+01  0.29375802601E+02  0.39550709267E+02  0.00000000000E+00 0.  1.
</event>
<event>
 5   0  0.2413800E+01  0.8375839E+02  0.7957747E-01  0.1317765E+00
        1   -1    0    0  501    0  0.00000000000E+00  0.00000000000E+00  0.13032238515E+03  0.13032238515E+03  0.00000000000E+00 0. -1.
       -2   -1    0    0    0  501  0.00000000000E+00  0.00000000000E+00 -0.13457910652E+02  0.13457910652E+02  0.00000000000E+00 0.  1.
      -24    2    1    2    0    0  0.00000000000E+00  0.00000000000E+00  0.11686447450E+03  0.14378029580E+03  0.83758390990E+02 0.  0.
       11    1    3    3    0    0 -0.35357020552E+02 -0.22438850073E+02  0.59283855282E+02  0.72582342150E+02  0.00000000000E+00 0. -1.
      -12    1    3    3    0    0  0.35357020552E+02  0.22438850073E+02  0.57580619218E+02  0.71197953653E+02  0.00000000000E+00 0.  1.
</event>
<event>
 5   0  0.2413800E+01  0.7918660E+02  0.7957747E-01  0.1329766E+00
       -2   -1    0    0    0  501  0.00000000000E+00  0.00000000000E+00  0.88850251410E+01  0.88850251410E+01  0.00000000000E+00 0.  1.
        1   -1    0    0  501    0  0.00000000000E+00  0.00000000000E+00 -0.17643499943E+03  0.17643499943E+03  0.00000000000E+00 0. -1.
      -24    2    1    2    0    0  0.00000000000E+00  0.00000000000E+00 -0.16754997429E+03  0.18532002457E+03  0.79186600020E+02 0.  0.
       11    1    3    3    0    0 -0.17083285479E+00 -0.39533481098E+02 -0.88850835677E+02  0.97249145560E+02  0.00000000000E+00 0. -1.
      -12    1    3    3    0    0  0.17083285479E+00  0.39533481098E+02 -0.78699138612E+02  0.88070879011E+02  0.00000000000E+00 0.  1.
</event>
<event>
 5   0  0.2413800E+01  0.8373956E+02  0.7957747E-01  0.1317812E+00
        1   -1    0    0  501    0  0.00000000000E+00  0.00000000000E+00  0.95925895683E+02  0.95925895683E+02  0.00000000000E+00 0. -1.
       -2   -1    0    0    0  501  0.00000000000E+00  0.00000000000E+00 -0.18275340333E+02  0.18275340333E+02  0.00000000000E+00 0.  1.
      -24    2    1    2    0    0  0.00000000000E+00  0.00000000000E+00  0.77650555350E+02  0.11420123602E+03  0.83739557926E+02 0.  0.
       11    1    3    3    0    0  0.73267211949E+01  0.38238852895E+02  0.59828513109E+02  0.71381662177E+02  0.00000000000E+00 0. -1.
      -12    1    3    3    0    0 -0.73267211949E+01 -0.38238852895E+02  0.17822042241E+02  0.42819573840E+02  0.00000000000E+00 0.  1.
</event>
<event>
 5   0  0.2413800E+01  0.7898905E+02  0.7957747E-01  0.1330305E+00
        1   -1    0    0  501    0  0.00000000000E+00  0.00000000000E+00  0.73418707377E+02  0.73418707377E+02  0.00000000000E+00 0. -1.
       -2   -1    0    0    0  501  0.00000000000E+00  0.00000000000E+00 -0.21245504286E+02  0.21245504286E+02  0.00000000000E+00 0.  1.
      -24    2    1    2    0    0  0.00000000000E+00  0.00000000000E+00  0.52173203091E+02  0.94664211663E+02  0.78989048918E+02 0.  0.
       11    1    3    3    0    0 -0.32285696529E+02 -0.54705272074E+01 -0.37506561794E+00  0.32748031124E+02  0.00000000000E+00 0. -1.
      -12    1    3    3    0    0  0.32285696529E+02  0.54705272074E+01  0.52548268709E+02  0.61916180540E+02  0.00000000000E+00 0.  1.
</event>
<event>
 5   0  0.2413800E+01  0.8005189E+02  0.7957747E-01  0.1327425E+00
        1   -1    0    0  501    0  0.00000000000E+00  0.00000000000E+00  0.43924600291E+02  0.43924600291E+02  0.00000000000E+00 0. -1.
       -2   -1    0    0    0  501  0.00000000000E+00  0.00000000000E+00 -0.36473326311E+02  0.36473326311E+02  0.00000000000E+00 0.  1.
      -24    2    1    2    0    0  0.00000000000E+00  0.00000000000E+00  0.74512739803E+01  0.80397926602E+02  0.80051890159E+02 0.  0.
       11    1    3    3    0    0  0.57676850122E+01  0.39531874481E+02  0.61941037642E+01  0.40427740622E+02  0.00000000000E+00 0. -1.
      -12    1    3    3    0    0 -0.57676850122E+01 -0.39531874481E+02  0.12571702160E+01  0.39970185980E+02  0.00000000000E+00 0.  1.
</event>
<event>
 5   0  0.2413800E+01  0.8152613E+02  0.7957747E-01  0.1323513E+00
       -2   -1    0    0    0  501  0.00000000000E+00  0.00000000000E+00  0.19146489749E+03  0.19146489749E+03  0.00000000000E+00 0.  1.
        1   -1    0    0  501    0  0.00000000000E+00  0.00000000000E+00 -0.86784965485E+01  0.86784965485E+01  0.00000000000E+00 0. -1.
      -24    2    1    2    0    0  0.00000000000E+00  0.00000000000E+00  0.18278640094E+03  0.20014339404E+03  0.81526129603E+02 0.  0.
       11    1    3    3    0    0  0.17237737275E+02 -0.26961902502E+01  0.95137729214E+00  0.17473240883E+02  0.00000000000E+00 0. -1.
      -12    1    3    3    0    0 -0.17237737275E+02  0.26961902502E+01  0.18183502365E+03  0.18267015316E+03  0.00000000000E+00 0.  1.
</event>
<event>
 5   0  0.2413800E+01  0.8372153E+02  0.7957747E-01  0.1317858E+00
        1   -1    0    0  501    0  0.00000000000E+00  0.00000000000E+00  0.81801829905E+02  0.81801829905E+02  0.00000000000E+00 0. -1.
       -2   -1    0    0    0  501  0.00000000000E+00  0.00000000000E+00 -0.21421570626E+02  0.21421570626E+02  0.00000000000E+00 0.  1.
      -24    2    1    2    0    0  0.00000000000E+00  0.00000000000E+00  0.60380259279E+02  0.10322340053E+03  0.83721530723E+02 0.  0.
       11    1    3    3    0    0 -0.32360923590E+02 -0.20527405144E+02  0.50957711496E+02  0.63759643180E+02  0.00000000000E+00 0. -1.
      -12    1    3    3    0    0  0.32360923590E+02  0.20527405144E+02  0.94225477833E+01  0.39463757351E+02  0.00000000000E+00 0.  1.
</event>
<event>
 5   0  0.2413800E+01  0.8108545E+02  0.7957747E-01  0.1324673E+00
        1   -1    0    0  501    0  0.00000000000E+00  0.00000000000E+00  0.18462288270E+02  0.18462288270E+02  0.00000000000E+00 0. -1.
       -2   -1    0    0    0  501  0.00000000000E+00  0.00000000000E+00 -0.89030817698E+02  0.89030817698E+02  0.00000000000E+00 0.  1.
      -24    2    1    2    0    0  0.00000000000E+00  0.00000000000E+00 -0.70568529428E+02  0.10749310597E+03  0.81085451747E+02 0.  0.
       11    1    3    3    0    0 -0.97175290797E+01  0.35342074785E+01  0.16684831493E+02  0.19629177157E+02  0.00000000000E+00 0. -1.
      -12    1    3    3    0    0  0.97175290797E+01 -0.35342074785E+01 -0.87253360922E+02  0.87863928810E+02  0.00000000000E+00 0.  1.
</event>
<event>
 5   0  0.2413800E+01  0.7976760E+02  0.7957747E-01  0.1328191E+00
       -4   -1    0    0    0  501  0.00000000000E+00  0.00000000000E+00  0.20490393379E+02  0.20490393379E+02  0.00000000000E+00 0.  1.
        3   -1    0    0  501    0  0.00000000000E+00  0.00000000000E+00 -0.77632364433E+02  0.77632364433E+02  0.00000000000E+00 0. -1.
      -24    2    1    2    0    0  0.00000000000E+00  0.00000000000E+00 -0.57141971054E+02  0.98122757811E+02  0.79767604606E+02 0.  0.
       11    1    3    3    0    0 -0.29948398990E+02 -0.14673612500E+02 -0.55479048349E+02  0.64731339486E+02  0.00000000000E+00 0. -1.
      -12    1    3    3    0    0  0.29948398990E+02  0.14673612500E+02 -0.16629227046E+01  0.33391418325E+02  0.00000000000E+00 0.  1.
</event>
<event>
 5   0  0.2413800E+01  0.8124903E+02  0.7957747E-01  0.1324242E+00
        1   -1    0    0  501    0  0.00000000000E+00  0.00000000000E+00  0.13955670133E+02  0.13955670133E+02  0.00000000000E+00 0. -1.
       -2   -1    0    0    0  501  0.00000000000E+00  0.00000000000E+00 -0.11825667051E+03  0.11825667051E+03  0.00000000000E+00 0.  1.
      -24    2    1    2    0    0  0.00000000000E+00  0.00000000000E+00 -0.10430100037E+03  0.13221234064E+03  0.81249026693E+02 0.  0.
       11    1    3    3    0    0  0.32357292490E+02  0.17058366795E+02 -0.80910420074E+02  0.88794585035E+02  0.00000000000E+00 0. -1.
      -12    1    3    3    0    0 -0.32357292490E+02 -0.17058366795E+02 -0.23390580300E+02  0.43417755605E+02  0.00000000000E+00 0.  1.
</event>
<event>
 5   0  0.2413800E+01  0.7738781E+02  0.7957747E-01  0.1334742E+00
       -2   -1    0    0    0  501  0.00000000000E+00  0.00000000000E+00  0.23538223372E+03  0.23538223372E+03  0.00000000000E+00 0.  1.
        1   -1    0    0  501    0  0.00000000000E+00  0.00000000000E+00 -0.63607949310E+01  0.63607949310E+01  0.00000000000E+00 0. -1.
      -24    2    1    2    0    0  0.00000000000E+00  0.00000000000E+00  0.22902143879E+03  0.24174302865E+03  0.77387805734E+02 0.  0.
       11    1    3    3    0    0 -0.29390870022E+01  0.17362689419E+02  0.68820006207E+01  0.18906695873E+02  0.00000000000E+00 0. -1.
      -12    1    3    3    0    0  0.29390870022E+01 -0.17362689419E+02  0.22213943816E+03  0.22283633277E+03  0.00000000000E+00 0.  1.
</event>
<event>
 5   0  0.2413800E+01  0.9441543E+02  0.7957747E-01  0.1292867E+00
       -2   -1    0    0    0  501  0.00000000000E+00  0.00000000000E+00  0.47078177531E+02  0.47078177531E+02  0.00000000000E+00 0.  1.
        1   -1    0    0  501    0  0.00000000000E+00  0.00000000000E+00 -0.47337609634E+02  0.47337609634E+02  0.00000000000E+00 0. -1.
      -24    2    1    2    0    0  0.00000000000E+00  0.00000000000E+00 -0.25943210312E+00  0.94415787164E+02  0.94415430735E+02 0.  0.
       11    1    3    3    0    0  0.35782003792E+02 -0.12789126186E+02  0.27882080938E+02  0.47130923833E+02  0.00000000000E+00 0. -1.
      -12    1    3    3    0    0 -0.35782003792E+02  0.12789126186E+02 -0.28141513041E+02  0.47284863331E+02  0.00000000000E+00 0.  1.
</event>
<event>
 5   0  0.2413800E+01  0.8093824E+02  0.7957747E-01  0.1325062E+00
       -2   -1    0    0    0  501  0.00000000000E+00  0.00000000000E+00  0.14961808978E+03  0.14961808978E+03  0.00000000000E+00 0.  1.
        1   -1    0    0  501    0  0.00000000000E+00  0.00000000000E+00 -0.10946200868E+02  0.10946200868E+02  0.00000000000E+00 0. -1.
      -24    2    1    2    0    0  0.00000000000E+00  0.00000000000E+00  0.13867188892E+03  0.16056429065E+03  0.80938239770E+02 0.  0.
       11    1    3    3    0    0  0.13773808923E+02  0.26666101899E+02  0.15482377323E+02  0.33771331190E+02  0.00000000000E+00 0. -1.
      -12    1    3    3    0    0 -0.13773808923E+02 -0.26666101899E+02  0.12318951159E+03  0.12679295946E+03  0.00000000000E+00 0.  1.
</event>
<event>
 5   0  0.2413800E+01  0.7746031E+02  0.7957747E-01  0.1334539E+00
       -4   -1    0    0    0  501  0.00000000000E+00  0.00000000000E+00  0.11420960034E+02  0.11420960034E+02  0.00000000000E+00 0.  1.
        3   -1    0    0  501    0  0.00000000000E+00  0.00000000000E+00 -0.13133965774E+03  0.13133965774E+03  0.00000000000E+00 0. -1.
      -24    2    1    2    0    0  0.00000000000E+00  0.00000000000E+00 -0.11991869770E+03  0.14276061777E+03  0.77460311950E+02 0.  0.
       11    1    3    3    0    0 -0.38479183348E+02 -0.29309845474E+01 -0.53906292859E+02  0.66295751231E+02  0.00000000000E+00 0. -1.
      -12    1    3    3    0    0  0.38479183348E+02  0.29309845474E+01 -0.66012404842E+02  0.76464866537E+02  0.00000000000E+00 0.  1.
</event>
<event>
 5   0  0.2413800E+01  0.7668888E+02  0.7957747E-01  0.1336718E+00
       -2   -1    0    0    0  501  0.00000000000E+00  0.00000000000E+00  0.11546261822E+03  0.11546261822E+03  0.00000000000E+00 0.  1.
        1   -1    0    0  501    0  0.00000000000E+00  0.00000000000E+00 -0.12733958734E+02  0.12733958734E+02  0.00000000000E+00 0. -1.
      -24    2    1    2    0    0  0.00000000000E+00  0.00000000000E+00  0.10272865949E+03  0.12819657696E+03  0.76688883569E+02 0.  0.
       11    1    3    3    0    0 -0.22557610848E+02  0.36926720756E+00 -0.46512721667E+00  0.22565427289E+02  0.00000000000E+00 0. -1.
      -12    1    3    3    0    0  0.22557610848E+02 -0.36926720756E+00  0.10319378671E+03  0.10563114967E+03  0.00000000000E+00 0.  1.
</event>
<event>
 5   0  0.2413800E+01  0.8571788E+02  0.7957747E-01  0.1312883E+00
       -2   -1    0    0    0  501  0.00000000000E+00  0.00000000000E+00  0.52205150499E+02  0.52205150499E+02  0.00000000000E+00 0.  1.
        1   -1    0    0  501    0  0.00000000000E+00  0.00000000000E+00 -0.35185968624E+02  0.35185968624E+02  0.00000000000E+00 0. -1.
      -24    2    1    2    0    0  0.00000000000E+00  0.00000000000E+00  0.17019181875E+02  0.87391119123E+02  0.85717881156E+02 0.  0.
       11    1    3    3    0    0  0.39048318382E+02  0.14362456187E+02 -0.19789626444E+01  0.41652942385E+02  0.00000000000E+00 0. -1.
      -12    1    3    3    0    0 -0.39048318382E+02 -0.14362456187E+02  0.18998144519E+02  0.45738176738E+02  0.00000000000E+00 0.  1.
</event>
<event>
 5   0  0.2413800E+01  0.7523324E+02  0.7957747E-01  0.1340909E+00
       -4   -1    0    0    0  501  0.00000000000E+00  0.00000000000E+00  0.30270885059E+02  0.30270885059E+02  0.00000000000E+00 0.  1.
        3   -1    0    0  501    0  0.00000000000E+00  0.00000000000E+00 -0.46744920089E+02  0.46744920089E+02  0.00000000000E+00 0. -1.
      -24    2    1    2    0    0  0.00000000000E+00  0.00000000000E+00 -0.16474035029E+02  0.77015805148E+02  0.75233240077E+02 0.  0.
       11    1    3    3    0    0 -0.89173523557E-01  0.30781450336E+02 -0.30371174008E+02  0.43242500475E+02  0.00000000000E+00 0. -1.
      -12    1    3    3    0    0  0.89173523557E-01 -0.30781450336E+02  0.13897138979E+02  0.33773304673E+02  0.00000000000E+00 0.  1.
</event>
<event>
 5   0  0.2413800E+01  0.8081583E+02  0.7957747E-01  0.1325386E+00
        1   -1    0    0  501    0  0.00000000000E+00  0.00000000000E+00  0.39833598603E+03  0.39833598603E+03  0.00000000000E+00 0. -1.
       -2   -1    0    0    0  501  0.00000000000E+00  0.00000000000E+00 -0.40990515637E+01  0.40990515637E+01  0.00000000000E+00 0.  1.
      -24    2    1    2    0    0  0.00000000000E+00  0.00000000000E+00  0.39423693447E+03  0.40243503760E+03  0.80815833756E+02 0.  0.
       11    1    3    3    0    0 -0.12199296402E+02  0.38507354349E+02  0.20248304930E+03  0.20647281765E+03  0.00000000000E+00 0. -1.
      -12    1    3    3    0    0  0.12199296402E+02 -0.38507354349E+02  0.19175388516E+03  0.19596221995E+03  0.00000000000E+00 0.  1.
</event>
<event>
 5   0  0.2413800E+01  0.8257772E+02  0.7957747E-01  0.1320780E+00
        1   -1    0    0  501    0  0.00000000000E+00  0.00000000000E+00  0.88399275861E+02  0.88399275861E+02  0.00000000000E+00 0. -1.
       -2   -1    0    0    0  501  0.00000000000E+00  0.00000000000E+00 -0.19284885803E+02  0.19284885803E+02  0.00000000000E+00 0.  1.
      -24    2    1    2    0    0  0.00000000000E+00  0.00000000000E+00  0.69114390059E+02  0.10768416166E+03  0.82577719514E+02 0.  0.
       11    1    3    3    0    0  0.12838905094E+02  0.25868916509E+02  0.73036844113E+02  0.78539282677E+02  0.00000000000E+00 0. -1.
      -12    1    3    3    0    0 -0.12838905094E+02 -0.25868916509E+02 -0.39224540542E+01  0.29144878988E+02  0.00000000000E+00 0.  1.
</event>
<event>
 5   0  0.2413800E+01  0.7539686E+02  0.7957747E-01  0.1340432E+00
       -2   -1    0    0    0  501  0.00000000000E+00  0.00000000000E+00  0.38232627956E+03  0.38232627956E+03  0.00000000000E+00 0.  1.
        1   -1    0    0  501    0  0.00000000000E+00  0.00000000000E+00 -0.37171692557E+01  0.37171692557E+01  0.00000000000E+00 0. -1.
      -24    2    1    2    0    0  0.00000000000E+00  0.00000000000E+00  0.37860911030E+03  0.38604344881E+03  0.75396856486E+02 0.  0.
       11    1    3    3    0    0  0.23988099950E+02  0.12337882775E+02  0.54466589197E+02  0.60780437884E+02  0.00000000000E+00 0. -1.
      -12    1    3    3    0    0 -0.23988099950E+02 -0.12337882775E+02  0.32414252111E+03  0.32526301093E+03  0.00000000000E+00 0.  1.
</event>
<event>
 5   0  0.2413800E+01  0.7969087E+02  0.7957747E-01  0.1328398E+00
        1   -1    0    0  501    0  0.00000000000E+00  0.00000000000E+00  0.25632385747E+01  0.25632385747E+01  0.00000000000E+00 0. -1.
       -2   -1    0    0    0  501  0.00000000000E+00  0.00000000000E+00 -0.61939559344E+03  0.61939559344E+03  0.00000000000E+00 0.  1.
      -24    2    1    2    0    0  0.00000000000E+00  0.00000000000E+00 -0.61683235487E+03  0.62195883202E+03  0.79690869693E+02 0.  0.
       11    1    3    3    0    0  0.30267083747E+02  0.45485193705E+01 -0.10930240617E+03  0.11350683408E+03  0.00000000000E+00 0. -1.
      -12    1    3    3    0    0 -0.30267083747E+02 -0.45485193705E+01 -0.50752994870E+03  0.50845199794E+03  0.00000000000E+00 0.  1.
</event>
<event>
 5   0  0.2413800E+01  0.8282632E+02  0.7957747E-01  0.1320140E+00
       -2   -1    0    0    0  501  0.00000000000E+00  0.00000000000E+00  0.79176943369E+01  0.79176943369E+01  0.00000000000E+00 0.  1.
        1   -1    0    0  501    0  0.00000000000E+00  0.00000000000E+00 -0.21660974715E+03  0.21660974715E+03  0.00000000000E+00 0. -1.
      -24    2    1    2    0    0  0.00000000000E+00  0.00000000000E+00 -0.20869205281E+03  0.22452744148E+03  0.82826318723E+02 0.  0.
       11    1    3    3    0    0 -0.29533647629E+02 -0.28499953923E+02 -0.11933323477E+03  0.12619391680E+03  0.00000000000E+00 0. -1.
      -12    1    3    3    0    0  0.29533647629E+02  0.28499953923E+02 -0.89358818038E+02  0.98333524685E+02  0.00000000000E+00 0.  1.
</event>
<event>
 5   0  0.2413800E+01  0.8891008E+02  0.7957747E-01  0.1305238E+00
        1   -1    0    0  501    0  0.00000000000E+00  0.00000000000E+00  0.78109957532E+02  0.78109957532E+02  0.00000000000E+00 0. -1.
       -2   -1    0    0    0  501  0.00000000000E+00  0.00000000000E+00 -0.25300879024E+02  0.25300879024E+02  0.00000000000E+00 0.  1.
      -24    2    1    2    0    0  0.00000000000E+00  0.00000000000E+00  0.52809078508E+02  0.10341083656E+03  0.88910080105E+02 0.  0.
       11    1    3    3    0    0  0.33719355973E+02 -0.15288123063E+02  0.55025386908E+02  0.66321300337E+02  0.00000000000E+00 0. -1.
      -12    1    3    3    0    0 -0.33719355973E+02  0.15288123063E+02 -0.22163083997E+01  0.37089536219E+02  0.00000000000E+00 0.  1.
</event>
<event>
 5   0  0.2413800E+01  0.8381358E+02  0.7957747E-01  0.1317625E+00
        1   -1    0    0  501    0  0.00000000000E+00  0.00000000000E+00  0.46525482099E+02  0.46525482099E+02  0.00000000000E+00 0. -1.
       -2   -1    0    0    0  501  0.00000000000E+00  0.00000000000E+00 -0.37746607775E+02  0.37746607775E+02  0.00000000000E+00 0.  1.
      -24    2    1    2    0    0  0.00000000000E+00  0.00000000000E+00  0.87788743237E+01  0.84272089875E+02  0.83813581820E+02 0.  0.
       11    1    3    3    0    0  0.28276484894E+02 -0.19259611503E+01  0.35427553110E+02  0.45369377818E+02  0.00000000000E+00 0. -1.
      -12    1    3    3    0    0 -0.28276484894E+02  0.19259611503E+01 -0.26648678786E+02  0.38902712056E+02  0.00000000000E+00 0.  1.
</event>
<event>
 5   0  0.2413800E+01  0.9535100E+02  0.7957747E-01  0.1290859E+00
        1   -1    0    0  501    0  0.00000000000E+00  0.00000000000E+00  0.22581512594E+02  0.22581512594E+02  0.00000000000E+00 0. -1.
       -2   -1    0    0    0  501  0.00000000000E+00  0.00000000000E+00 -0.10065548590E+03  0.10065548590E+03  0.00000000000E+00 0.  1.
      -24    2    1    2    0    0  0.00000000000E+00  0.00000000000E+00 -0.78073973303E+02  0.12323699849E+03  0.95350996270E+02 0.  0.
       11    1    3    3    0    0 -0.27554792274E+02 -0.10109348253E+02  0.95203004081E+01  0.30856143946E+02  0.00000000000E+00 0. -1.
      -12    1    3    3    0    0  0.27554792274E+02  0.10109348253E+02 -0.87594273711E+02  0.92380854544E+02  0.00000000000E+00 0.  1.
</event>
<event>
 5   0  0.2413800E+01  0.7970659E+02  0.7957747E-01  0.1328355E+00
       -4   -1    0    0    0  501  0.00000000000E+00  0.00000000000E+00  0.18104811523E+03  0.18104811523E+03  0.00000000000E+00 0.  1.
        3   -1    0    0  501    0  0.00000000000E+00  0.00000000000E+00 -0.87727227735E+01  0.87727227735E+01  0.00000000000E+00 0. -1.
      -24    2    1    2    0    0  0.00000000000E+00  0.00000000000E+00  0.17227539246E+03  0.18982083801E+03  0.79706585013E+02 0.  0.
       11    1    3    3    0    0 -0.24550542691E+02  0.27920561130E+02  0.51956974266E+02  0.63889076179E+02  0.00000000000E+00 0. -1.
      -12    1    3    3    0    0  0.24550542691E+02 -0.27920561130E+02  0.12031841819E+03  0.12593176183E+03  0.00000000000E+00 0.  1.
</event>
<event>
 5   0  0.2413800E+01  0.8725086E+02  0.7957747E-01  0.1309166E+00
       -4   -1    0    0    0  501  0.00000000000E+00  0.00000000000E+00  0.53039682362E+02  0.53039682362E+02  0.00000000000E+00 0.  1.
        3   -1    0    0  501    0  0.00000000000E+00  0.00000000000E+00 -0.35882158933E+02  0.35882158933E+02  0.00000000000E+00 0. -1.
      -24    2    1    2    0    0  0.00000000000E+00  0.00000000000E+00  0.17157523428E+02  0.88921841295E+02  0.87250863887E+02 0.  0.
       11    1    3    3    0    0 -0.31058625117E+02 -0.29101263252E+02 -0.11783341418E+01  0.42578283060E+02  0.00000000000E+00 0. -1.
      -12    1    3    3    0    0  0.31058625117E+02  0.29101263252E+02  0.18335857570E+02  0.46343558235E+02  0.00000000000E+00 0.  1.
</event>
<event>
 5   0  0.2413800E+01  0.7912164E+02  0.7957747E-01  0.1329943E+00
       -4   -1    0    0    0  501  0.00000000000E+00  0.00000000000E+00  0.10074403761E+02  0.10074403761E+02  0.00000000000E+00 0.  1.
        3   -1    0    0  501    0  0.00000000000E+00  0.00000000000E+00 -0.15535000509E+03  0.15535000509E+03  0.00000000000E+00 0. -1.
      -24    2    1    2    0    0  0.00000000000E+00  0.00000000000E+00 -0.14527560133E+03  0.16542440886E+03  0.79121644969E+02 0.  0.
       11    1    3    3    0    0  0.24818868383E+02  0.54122552347E+01 -0.13604646592E+03  0.13839765036E+03  0.00000000000E+00 0. -1.
      -12    1    3    3    0    0 -0.24818868383E+02 -0.54122552347E+01 -0.92291354127E+01  0.27026758500E+02  0.00000000000E+00 0.  1.
</event>
<event>
 5   0  0.2413800E+01  0.7975411E+02  0.7957747E-01  0.1328227E+00
        1   -1    0    0  501    0  0.00000000000E+00  0.00000000000E+00  0.47700281283E+02  0.47700281283E+02  0.00000000000E+00 0. -1.
       -2   -1    0    0    0  501  0.00000000000E+00  0.00000000000E+00 -0.33336903684E+02  0.33336903684E+02  0.00000000000E+00 0.  1.
      -24    2    1    2    0    0  0.00000000000E+00  0.00000000000E+00  0.14363377599E+02  0.81037184966E+02  0.79754114196E+02 0.  0.
       11    1    3    3    0    0 -0.29975420539E+01 -0.37078656799E+02 -0.74149225099E+01  0.37931426604E+02  0.00000000000E+00 0. -1.
      -12    1    3    3    0    0  0.29975420539E+01  0.37078656799E+02  0.21778300109E+02  0.43105758363E+02  0.00000000000E+00 0.  1.
</event>
<event>
 5   0  0.2413800E+01  0.8039349E+02  0.7957747E-01  0.1326510E+00
        1   -1    0    0  501    0  0.00000000000E+00  0.00000000000E+00  0.84431963434E+02  0.84431963434E+02  0.00000000000E+00 0. -1.
       -2   -1    0    0    0  501  0.00000000000E+00  0.00000000000E+00 -0.19137043815E+02  0.19137043815E+02  0.00000000000E+00 0.  1.
      -24    2    1    2    0    0  0.00000000000E+00  0.00000000000E+00  0.65294919618E+02  0.10356900725E+03  0.80393486891E+02 0.  0.
       11    1    3    3    0    0 -0.58860204998E+01  0.37356208960E+02  0.50200503984E+02  0.62850793038E+02  0.00000000000E+00 0. -1.
      -12    1    3    3    0    0  0.58860204998E+01 -0.37356208960E+02  0.15094415634E+02  0.40718214211E+02  0.00000000000E+00 0.  1.
</event>
<event>
 5   0  0.2413800E+01  0.7331010E+02  0.7957747E-01  0.1346614E+00
        1   -1    0    0  501    0  0.00000000000E+00  0.00000000000E+00  0.19084055841E+02  0.19084055841E+02  0.00000000000E+00 0. -1.
       -2   -1    0    0    0  501  0.00000000000E+00  0.00000000000E+00 -0.70403940242E+02  0.70403940242E+02  0.00000000000E+00 0.  1.
      -24    2    1    2    0    0  0.00000000000E+00  0.00000000000E+00 -0.51319884401E+02  0.89487996083E+02  0.73310100995E+02 0.  0.
       11    1    3    3    0    0  0.81245647346E+01 -0.10892603163E+02  0.15895755099E+02  0.20912493538E+02  0.00000000000E+00 0. -1.
      -12    1    3    3    0    0 -0.81245647346E+01  0.10892603163E+02 -0.67215639501E+02  0.68575502545E+02  0.00000000000E+00 0.  1.
</event>
<event>
 5   0  0.2413800E+01  0.7908482E+02  0.7957747E-01  0.1330044E+00
        1   -1    0    0  501    0  0.00000000000E+00  0.00000000000E+00  0.60820185313E+02  0.60820185313E+02  0.00000000000E+00 0. -1.
       -2   -1    0    0    0  501  0.00000000000E+00  0.00000000000E+00 -0.25708606380E+02  0.25708606380E+02  0.00000000000E+00 0.  1.
      -24    2    1    2    0    0  0.00000000000E+00  0.00000000000E+00  0.35111578933E+02  0.86528791694E+02  0.79084820394E+02 0.  0.
       11    1    3    3    0    0  0.34637420784E+02 -0.81017877941E+01  0.36450067305E+02  0.50931299715E+02  0.00000000000E+00 0. -1.
      -12    1    3    3    0    0 -0.34637420784E+02  0.81017877941E+01 -0.13384883726E+01  0.35597491979E+02  0.00000000000E+00 0.  1.
</event>
<event>
 5   0  0.2413800E+01  0.7890092E+02  0.7957747E-01  0.1330546E+00
       -2   -1    0    0    0  501  0.00000000000E+00  0.00000000000E+00  0.22719195255E+03  0.22719195255E+03  0.00000000000E+00 0.  1.
        1   -1    0    0  501    0  0.00000000000E+00  0.00000000000E+00 -0.68503254228E+01  0.68503254228E+01  0.00000000000E+00 0. -1.
      -24    2    1    2    0    0  0.00000000000E+00  0.00000000000E+00  0.22034162713E+03  0.23404227797E+03  0.78900920360E+02 0.  0.
       11    1    3    3    0    0  0.92849557198E+01 -0.26444585296E+02  0.27816458699E+02  0.39487743272E+02  0.00000000000E+00 0. -1.
      -12    1    3    3    0    0 -0.92849557198E+01  0.26444585296E+02  0.19252516843E+03  0.19455453470E+03  0.00000000000E+00 0.  1.
</event>
<event>
 5   0  0.2413800E+01  0.8119246E+02  0.7957747E-01  0.1324391E+00
        1   -1    0    0  501    0  0.00000000000E+00  0.00000000000E+00  0.31067419300E+02  0.31067419300E+02  0.00000000000E+00 0. -1.
       -2   -1    0    0    0  501  0.00000000000E+00  0.00000000000E+00 -0.53047662762E+02  0.53047662762E+02  0.00000000000E+00 0.  1.
      -24    2    1    2    0    0  0.00000000000E+00  0.00000000000E+00 -0.21980243463E+02  0.84115082062E+02  0.81192462259E+02 0.  0.
       11    1    3    3    0    0  0.21785390578E+02 -0.30482143300E+02  0.52022595041E+01  0.37826284601E+02  0.00000000000E+00 0. -1.
      -12    1    3    3    0    0 -0.21785390578E+02  0.30482143300E+02 -0.27182502967E+02  0.46288797461E+02  0.00000000000E+00 0.  1.
</event>
<event>
 5   0  0.2413800E+01  0.7867855E+02  0.7957747E-01  0.1331156E+00
       -2   -1    0    0    0  501  0.00000000000E+00  0.00000000000E+00  0.64097229933E+02  0.64097229933E+02  0.00000000000E+00 0.  1.
        1   -1    0    0  501    0  0.00000000000E+00  0.00000000000E+00 -0.24144236133E+02  0.24144236133E+02  0.00000000000E+00 0. -1.
      -24    2    1    2    0    0  0.00000000000E+00  0.00000000000E+00  0.39952993800E+02  0.88241466067E+02  0.78678552478E+02 0.  0.
       11    1    3    3    0    0 -0.26219338184E+02  0.14581702667E+02 -0.85623139980E+01  0.31199246280E+02  0.00000000000E+00 0. -1.
      -12    1    3    3    0    0  0.26219338184E+02 -0.14581702667E+02  0.48515307798E+02  0.57042219786E+02  0.00000000000E+00 0.  1.
</event>
<event>
 5   0  0.2413800E+01  0.8183055E+02  0.7957747E-01  0.1322717E+00
        1   -1    0    0  501    0  0.00000000000E+00  0.00000000000E+00  0.11375421445E+03  0.11375421445E+03  0.00000000000E+00 0. -1.
       -2   -1    0    0    0  501  0.00000000000E+00  0.00000000000E+00 -0.14716462602E+02  0.14716462602E+02  0.00000000000E+00 0.  1.
      -24    2    1    2    0    0  0.00000000000E+00  0.00000000000E+00  0.99037751847E+02  0.12847067705E+03  0.81830547909E+02 0.  0.
       11    1    3    3    0    0 -0.31828708676E+02  0.23936598005E+02  0.64249101158E+02  0.75590835553E+02  0.00000000000E+00 0. -1.
      -12    1    3    3    0    0  0.31828708676E+02 -0.23936598005E+02  0.34788650690E+02  0.52879841498E+02  0.00000000000E+00 0.  1.
</event>
<event>
 5   0  0.2413800E+01  0.8092327E+02  0.7957747E-01  0.1325102E+00
       -4   -1    0    0    0  501  0.00000000000E+00  0.00000000000E+00  0.27599323149E+02  0.27599323149E+02  0.00000000000E+00 0.  1.
        3   -1    0    0  501    0  0.00000000000E+00  0.00000000000E+00 -0.59318259895E+02  0.59318259895E+02  0.00000000000E+00 0. -1.
      -24    2    1    2    0    0  0.00000000000E+00  0.00000000000E+00 -0.31718936746E+02  0.86917583044E+02  0.80923267938E+02 0.  0.
       11    1    3    3    0    0 -0.17661095501E+02  0.48705446950E+00 -0.54956240851E+02  0.57726423108E+02  0.00000000000E+00 0. -1.
      -12    1    3    3    0    0  0.17661095501E+02 -0.48705446950E+00  0.23237304105E+02  0.29191159936E+02  0.00000000000E+00 0.  1.
</event>
<event>
 5   0  0.2413800E+01  0.7992503E+02  0.7957747E-01  0.1327766E+00
       -4   -1    0    0    0  501  0.00000000000E+00  0.00000000000E+00  0.10810776901E+02  0.10810776901E+02  0.00000000000E+00 0.  1.
        3   -1    0    0  501    0  0.00000000000E+00  0.00000000000E+00 -0.14772321458E+03  0.14772321458E+03  0.00000000000E+00 0. -1.
      -24    2    1    2    0    0  0.00000000000E+00  0.00000000000E+00 -0.13691243768E+03  0.15853399148E+03  0.79925032773E+02 0.  0.
       11    1    3    3    0    0 -0.12275470172E+02  0.36156858022E+02 -0.91841497202E+02  0.99462888347E+02  0.00000000000E+00 0. -1.
      -12    1    3    3    0    0  0.12275470172E+02 -0.36156858022E+02 -0.45070940476E+02  0.59071103133E+02  0.00000000000E+00 0.  1.
</event>
<event>
 5   0  0.2413800E+01  0.8068003E+02  0.7957747E-01  0.1325747E+00
        1   -1    0    0  501    0  0.00000000000E+00  0.00000000000E+00  0.30899106289E+02  0.30899106289E+02  0.00000000000E+00 0. -1.
       -2   -1    0    0    0  501  0.00000000000E+00  0.00000000000E+00 -0.52665501110E+02  0.52665501110E+02  0.00000000000E+00 0.  1.
      -24    2    1    2    0    0  0.00000000000E+00  0.00000000000E+00 -0.21766394820E+02  0.83564607399E+02  0.80680032637E+02 0.  0.
       11    1    3    3    0    0 -0.30266862612E+02  0.20228462401E+02  0.71175642421E+01  0.37093576050E+02  0.00000000000E+00 0. -1.
      -12    1    3    3    0    0  0.30266862612E+02 -0.20228462401E+02 -0.28883959063E+02  0.46471031349E+02  0.00000000000E+00 0.  1.
</event>
<event>
 5   0  0.2413800E+01  0.8007790E+02  0.7957747E-01  0.1327356E+00
       -2   -1    0    0    0  501  0.00000000000E+00  0.00000000000E+00  0.22053116639E+01  0.22053116639E+01  0.00000000000E+00 0.  1.
        1   -1    0    0  501    0  0.00000000000E+00  0.00000000000E+00 -0.72693469375E+03  0.72693469375E+03  0.00000000000E+00 0. -1.
      -24    2    1    2    0    0  0.00000000000E+00  0.00000000000E+00 -0.72472938208E+03  0.72914000541E+03  0.80077901047E+02 0.  0.
       11    1    3    3    0    0 -0.19877027058E+02  0.21780374745E+02 -0.11573875323E+03  0.11943592394E+03  0.00000000000E+00 0. -1.
      -12    1    3    3    0    0  0.19877027058E+02 -0.21780374745E+02 -0.60899062886E+03  0.60970408147E+03  0.00000000000E+00 0.  1.
</event>
<event>
 5   0  0.2413800E+01  0.8075521E+02  0.7957747E-01  0.1325547E+00
        1   -1    0    0  501    0  0.00000000000E+00  0.00000000000E+00  0.11598835151E+03  0.11598835151E+03  0.00000000000E+00 0. -1.
       -2   -1    0    0    0  501  0.00000000000E+00  0.00000000000E+00 -0.14056161396E+02  0.14056161396E+02  0.00000000000E+00 0.  1.
      -24    2    1    2    0    0  0.00000000000E+00  0.00000000000E+00  0.10193219011E+03  0.13004451290E+03  0.80755210082E+02 0.  0.
       11    1    3    3    0    0  0.18004651808E+02  0.25179904809E+02  0.92716095772E+02  0.97746966746E+02  0.00000000000E+00 0. -1.
      -12    1    3    3    0    0 -0.18004651808E+02 -0.25179904809E+02  0.92160943403E+01  0.32297546158E+02  0.00000000000E+00 0.  1.
</event>
<event>
 5   0  0.2413800E+01  0.7769196E+02  0.7957747E-01  0.1333890E+00
       -2   -1    0    0    0  501  0.00000000000E+00  0.00000000000E+00  0.22881568991E+02  0.22881568991E+02  0.00000000000E+00 0.  1.
        1   -1    0    0  501    0  0.00000000000E+00  0.00000000000E+00 -0.65948711310E+02  0.65948711310E+02  0.00000000000E+00 0. -1.
      -24    2    1    2    0    0  0.00000000000E+00  0.00000000000E+00 -0.43067142319E+02  0.88830280301E+02  0.77691955509E+02 0.  0.
       11    1    3    3    0    0  0.46741496209E+01  0.38548666070E+02 -0.20300719473E+02  0.43817422809E+02  0.00000000000E+00 0. -1.
      -12    1    3    3    0    0 -0.46741496209E+01 -0.38548666070E+02 -0.22766422846E+02  0.45012857493E+02  0.00000000000E+00 0.  1.
</event>
<event>
 5   0  0.2413800E+01  0.8281409E+02  0.7957747E-01  0.1320172E+00
        1   -1    0    0  501    0  0.00000000000E+00  0.00000000000E+00  0.27290337331E+03  0.27290337331E+03  0.00000000000E+00 0. -1.
       -2   -1    0    0    0  501  0.00000000000E+00  0.00000000000E+00 -0.62826021716E+01  0.62826021716E+01  0.00000000000E+00 0.  1.
      -24    2    1    2    0    0  0.00000000000E+00  0.00000000000E+00  0.26662077114E+03  0.27918597548E+03  0.82814088797E+02 0.  0.
       11    1    3    3    0    0 -0.22156432735E+01 -0.40180316108E+02  0.10042112441E+03  0.10818395956E+03  0.00000000000E+00 0. -1.
      -12    1    3    3    0    0  0.22156432735E+01  0.40180316108E+02  0.16619964673E+03  0.17100201592E+03  0.00000000000E+00 0.  1.
</event>
<event>
 5   0  0.2413800E+01  0.7973223E+02  0.7957747E-01  0.1328286E+00
       -2   -1    0    0    0  501  0.00000000000E+00  0.00000000000E+00  0.78816708909E+03  0.78816708909E+03  0.00000000000E+00 0.  1.
        1   -1    0    0  501    0  0.00000000000E+00  0.00000000000E+00 -0.20164594891E+01  0.20164594891E+01  0.00000000000E+00 0. -1.
      -24    2    1    2    0    0  0.00000000000E+00  0.00000000000E+00  0.78615062960E+03  0.79018354858E+03  0.79732227006E+02 0.  0.
       11    1    3    3    0    0  0.32498046488E+02  0.66827294375E+01  0.17402820187E+03  0.17716262852E+03  0.00000000000E+00 0. -1.
      -12    1    3    3    0    0 -0.32498046488E+02 -0.66827294375E+01  0.61212242773E+03  0.61302092006E+03  0.00000000000E+00 0.  1.
</event>
<event>
 5   0  0.2413800E+01  0.7904516E+02  0.7957747E-01  0.1330152E+00
        3   -1    0    0  501    0  0.00000000000E+00  0.00000000000E+00  0.46261908727E+02  0.46261908727E+02  0.00000000000E+00 0. -1.
       -4   -1    0    0    0  501  0.00000000000E+00  0.00000000000E+00 -0.33765023251E+02  0.33765023251E+02  0.00000000000E+00 0.  1.
      -24    2    1    2    0    0  0.00000000000E+00  0.00000000000E+00  0.12496885476E+02  0.80026931979E+02  0.79045162378E+02 0.  0.
       11    1    3    3    0    0 -0.37183020375E+02 -0.11319597588E+02  0.13501509418E+02  0.41146093986E+02  0.00000000000E+00 0. -1.
      -12    1    3    3    0    0  0.37183020375E+02  0.11319597588E+02 -0.10046239415E+01  0.38880837993E+02  0.00000000000E+00 0.  1.
</event>
<event>
 5   0  0.2413800E+01  0.8029397E+02  0.7957747E-01  0.1326776E+00
       -4   -1    0    0    0  501  0.00000000000E+00  0.00000000000E+00  0.50498909436E+02  0.50498909436E+02  0.00000000000E+00 0.  1.
        3   -1    0    0  501    0  0.00000000000E+00  0.00000000000E+00 -0.31917134696E+02  0.31917134696E+02  0.00000000000E+00 0. -1.
      -24    2    1    2    0    0  0.00000000000E+00  0.00000000000E+00  0.18581774740E+02  0.82416044131E+02  0.80293972238E+02 0.  0.
       11    1    3    3    0    0  0.10061187224E+02 -0.36683161334E+02 -0.38897803567E+01  0.38236268189E+02  0.00000000000E+00 0. -1.
      -12    1    3    3    0    0 -0.10061187224E+02  0.36683161334E+02  0.22471555096E+02  0.44179775942E+02  0.00000000000E+00 0.  1.
</event>
<event>
 5   0  0.2413800E+01  0.7103480E+02  0.7957747E-01  0.1353627E+00
       -2   -1    0    0    0  501  0.00000000000E+00  0.00000000000E+00  0.91542696354E+01  0.91542696354E+01  0.00000000000E+00 0.  1.
        1   -1    0    0  501    0  0.00000000000E+00  0.00000000000E+00 -0.13780299951E+03  0.13780299951E+03  0.00000000000E+00 0. -1.
      -24    2    1    2    0    0  0.00000000000E+00  0.00000000000E+00 -0.12864872988E+03  0.14695726915E+03  0.71034803135E+02 0.  0.
       11    1    3    3    0    0 -0.25511020361E+02  0.12493085029E+02 -0.10843394534E+03  0.11209286255E+03  0.00000000000E+00 0. -1.
      -12    1    3    3    0    0  0.25511020361E+02 -0.12493085029E+02 -0.20214784541E+02  0.34864406598E+02  0.00000000000E+00 0.  1.
</event>
<event>
 5   0  0.2413800E+01  0.8057068E+02  0.7957747E-01  0.1326038E+00
       -2   -1    0    0    0  501  0.00000000000E+00  0.00000000000E+00  0.15720980753E+03  0.15720980753E+03  0.00000000000E+00 0.  1.
        1   -1    0    0  501    0  0.00000000000E+00  0.00000000000E+00 -0.10323202827E+02  0.10323202827E+02  0.00000000000E+00 0. -1.
      -24    2    1    2    0    0  0.00000000000E+00  0.00000000000E+00  0.14688660471E+03  0.16753301036E+03  0.80570682747E+02 0.  0.
       11    1    3    3    0    0  0.92309661767E+01 -0.27708081422E+02  0.15745736492E+02  0.33179462478E+02  0.00000000000E+00 0. -1.
      -12    1    3    3    0    0 -0.92309661767E+01  0.27708081422E+02  0.13114086822E+03  0.13435354788E+03  0.00000000000E+00 0.  1.
</event>
<event>
 5   0  0.2413800E+01  0.7933680E+02  0.7957747E-01  0.1329357E+00
        1   -1    0    0  501    0  0.00000000000E+00  0.00000000000E+00  0.86443049031E+02  0.86443049031E+02  0.00000000000E+00 0. -1.
       -2   -1    0    0    0  501  0.00000000000E+00  0.00000000000E+00 -0.18203683964E+02  0.18203683964E+02  0.00000000000E+00 0.  1.
      -24    2    1    2    0    0  0.00000000000E+00  0.00000000000E+00  0.68239365068E+02  0.10464673299E+03  0.79336799669E+02 0.  0.
       11    1    3    3    0    0 -0.13934209053E+02 -0.76156220478E+01  0.82067823543E+02  0.83589996664E+02  0.00000000000E+00 0. -1.
      -12    1    3    3    0    0  0.13934209053E+02  0.76156220478E+01 -0.13828458476E+02  0.21056736331E+02  0.00000000000E+00 0.  1.
</event>
<event>
 5   0  0.2413800E+01  0.7972025E+02  0.7957747E-01  0.1328319E+00
        1   -1    0    0  501    0  0.00000000000E+00  0.00000000000E+00  0.31945759162E+03  0.31945759162E+03  0.00000000000E+00 0. -1.
       -2   -1    0    0    0  501  0.00000000000E+00  0.00000000000E+00 -0.49735231301E+01  0.49735231301E+01  0.00000000000E+00 0.  1.
      -24    2    1    2    0    0  0.00000000000E+00  0.00000000000E+00  0.31448406849E+03  0.32443111475E+03  0.79720253914E+02 0.  0.
       11    1    3    3    0    0  0.31404698678E+02 -0.24064609770E+02  0.13752676236E+03  0.14310475502E+03  0.00000000000E+00 0. -1.
      -12    1    3    3    0    0 -0.31404698678E+02  0.24064609770E+02  0.17695730612E+03  0.18132635973E+03  0.00000000000E+00 0.  1.
</event>
<event>
 5   0  0.2413800E+01  0.8075132E+02  0.7957747E-01  0.1325558E+00
        1   -1    0    0  501    0  0.00000000000E+00  0.00000000000E+00  0.88265936310E+02  0.88265936310E+02  0.00000000000E+00 0. -1.
       -2   -1    0    0    0  501  0.00000000000E+00  0.00000000000E+00 -0.18469116610E+02  0.18469116610E+02  0.00000000000E+00 0.  1.
      -24    2    1    2    0    0  0.00000000000E+00  0.00000000000E+00  0.69796819700E+02  0.10673505292E+03  0.80751318760E+02 0.  0.
       11    1    3    3    0    0  0.16364601097E+02 -0.36638482778E+02  0.40811823950E+02  0.57234461328E+02  0.00000000000E+00 0. -1.
      -12    1    3    3    0    0 -0.16364601097E+02  0.36638482778E+02  0.28984995750E+02  0.49500591592E+02  0.00000000000E+00 0.  1.
</event>
<event>
 5   0  0.2413800E+01  0.8230110E+02  0.7957747E-01  0.1321494E+00
       -4   -1    0    0    0  501  0.00000000000E+00  0.00000000000E+00  0.92668032512E+02  0.92668032512E+02  0.00000000000E+00 0.  1.
        3   -1    0    0  501    0  0.00000000000E+00  0.00000000000E+00 -0.18273481841E+02  0.18273481841E+02  0.00000000000E+00 0. -1.
      -24    2    1    2    0    0  0.00000000000E+00  0.00000000000E+00  0.74394550671E+02  0.11094151435E+03  0.82301096210E+02 0.  0.
       11    1    3    3    0    0  0.27003024982E+02  0.62044928392E+01 -0.38161082874E+01  0.27968227903E+02  0.00000000000E+00 0. -1.
      -12    1    3    3    0    0 -0.27003024982E+02 -0.62044928392E+01  0.78210658958E+02  0.82973286450E+02  0.00000000000E+00 0.  1.
</event>
<event>
 5   0  0.2413800E+01  0.8096298E+02  0.7957747E-01  0.1324997E+00
       -2   -1    0    0    0  501  0.00000000000E+00  0.00000000000E+00  0.47783843010E+02  0.47783843010E+02  0.00000000000E+00 0.  1.
        1   -1    0    0  501    0  0.00000000000E+00  0.00000000000E+00 -0.34295088428E+02  0.34295088428E+02  0.00000000000E+00 0. -1.
      -24    2    1    2    0    0  0.00000000000E+00  0.00000000000E+00  0.13488754582E+02  0.82078931437E+02  0.80962982194E+02 0.  0.
       11    1    3    3    0    0  0.63968539739E+01 -0.39263405607E+02  0.14345479305E+02  0.42288621840E+02  0.00000000000E+00 0. -1.
      -12    1    3    3    0    0 -0.63968539739E+01  0.39263405607E+02 -0.85672472261E+00  0.39790309598E+02  0.00000000000E+00 0.  1.
</event>
<event>
 5   0  0.2413800E+01  0.8184735E+02  0.7957747E-01  0.1322673E+00
        3   -1    0    0  501    0  0.00000000000E+00  0.00000000000E+00  0.10067882241E+03  0.10067882241E+03  0.00000000000E+00 0. -1.
       -4   -1    0    0    0  501  0.00000000000E+00  0.00000000000E+00 -0.16634554322E+02  0.16634554322E+02  0.00000000000E+00 0.  1.
      -24    2    1    2    0    0  0.00000000000E+00  0.00000000000E+00  0.84044268093E+02  0.11731337674E+03  0.81847354033E+02 0.  0.
       11    1    3    3    0    0  0.39002506021E+02  0.16756226357E+01  0.24424141471E+02  0.46049341729E+02  0.00000000000E+00 0. -1.
      -12    1    3    3    0    0 -0.39002506021E+02 -0.16756226357E+01  0.59620126622E+02  0.71264035008E+02  0.00000000000E+00 0.  1.
</event>
<event>
 5   0  0.2413800E+01  0.7235478E+02  0.7957747E-01  0.1349523E+00
        1   -1    0    0  501    0  0.00000000000E+00  0.00000000000E+00  0.25753438347E+02  0.25753438347E+02  0.00000000000E+00 0. -1.
       -2   -1    0    0    0  501  0.00000000000E+00  0.00000000000E+00 -0.50820530905E+02  0.50820530905E+02  0.00000000000E+00 0.  1.
      -24    2    1    2    0    0  0.00000000000E+00  0.00000000000E+00 -0.25067092558E+02  0.76573969253E+02  0.72354776192E+02 0.  0.
       11    1    3    3    0    0 -0.12195934574E+02  0.14528979760E+02  0.20068172919E+02  0.27614554809E+02  0.00000000000E+00 0. -1.
      -12    1    3    3    0    0  0.12195934574E+02 -0.14528979760E+02 -0.45135265477E+02  0.48959414444E+02  0.00000000000E+00 0.  1.
</event>
<event>
 5   0  0.2413800E+01  0.8149669E+02  0.7957747E-01  0.1323591E+00
        1   -1    0    0  501    0  0.00000000000E+00  0.00000000000E+00  0.84536207566E+01  0.84536207566E+01  0.00000000000E+00 0. -1.
       -2   -1    0    0    0  501  0.00000000000E+00  0.00000000000E+00 -0.19641616445E+03  0.19641616445E+03  0.00000000000E+00 0.  1.
      -24    2    1    2    0    0  0.00000000000E+00  0.00000000000E+00 -0.18796254370E+03  0.20486978521E+03  0.81496693547E+02 0.  0.
       11    1    3    3    0    0 -0.30432092485E+02  0.17069831654E+02 -0.41074825843E+02  0.53894644667E+02  0.00000000000E+00 0. -1.
      -12    1    3    3    0    0  0.30432092485E+02 -0.17069831654E+02 -0.14688771785E+03  0.15097514054E+03  0.00000000000E+00 0.  1.
</event>
<event>
 5   0  0.2413800E+01  0.7956880E+02  0.7957747E-01  0.1328728E+00
        1   -1    0    0  501    0  0.00000000000E+00  0.00000000000E+00  0.53943408127E+01  0.53943408127E+01  0.00000000000E+00 0. -1.
       -2   -1    0    0    0  501  0.00000000000E+00  0.00000000000E+00 -0.29341832404E+03  0.29341832404E+03  0.00000000000E+00 0.  1.
      -24    2    1    2    0    0  0.00000000000E+00  0.00000000000E+00 -0.28802398322E+03  0.29881266485E+03  0.79568798924E+02 0.  0.
       11    1    3    3    0    0 -0.16687702232E+01 -0.35994084555E+02 -0.80675913240E+02  0.88357013837E+02  0.00000000000E+00 0. -1.
      -12    1    3    3    0    0  0.16687702232E+01  0.35994084555E+02 -0.20734806998E+03  0.21045565101E+03  0.00000000000E+00 0.  1.
</event>
<event>
 5   0  0.2413800E+01  0.7909621E+02  0.7957747E-01  0.1330013E+00
        3   -1    0    0  501    0  0.00000000000E+00  0.00000000000E+00  0.24366496416E+02  0.24366496416E+02  0.00000000000E+00 0. -1.
       -4   -1    0    0    0  501  0.00000000000E+00  0.00000000000E+00 -0.64188656182E+02  0.64188656182E+02  0.00000000000E+00 0.  1.
      -24    2    1    2    0    0  0.00000000000E+00  0.00000000000E+00 -0.39822159765E+02  0.88555152598E+02  0.79096211308E+02 0.  0.
       11    1    3    3    0    0  0.11102758333E+02  0.37765007392E+02 -0.15635246010E+02  0.42354786550E+02  0.00000000000E+00 0. -1.
      -12    1    3    3    0    0 -0.11102758333E+02 -0.37765007392E+02 -0.24186913755E+02  0.46200366048E+02  0.00000000000E+00 0.  1.
</event>
<event>
 5   0  0.2413800E+01  0.6929428E+02  0.7957747E-01  0.1359196E+00
       -2   -1    0    0    0  501  0.00000000000E+00  0.00000000000E+00  0.38855014149E+02  0.38855014149E+02  0.00000000000E+00 0.  1.
        1   -1    0    0  501    0  0.00000000000E+00  0.00000000000E+00 -0.30894963311E+02  0.30894963311E+02  0.00000000000E+00 0. -1.
      -24    2    1    2    0    0  0.00000000000E+00  0.00000000000E+00  0.79600508378E+01  0.69749977461E+02  0.69294277877E+02 0.  0.
       11    1    3    3    0    0 -0.30500134398E+02  0.43429056205E+01 -0.11976834912E+02  0.33053949870E+02  0.00000000000E+00 0. -1.
      -12    1    3    3    0    0  0.30500134398E+02 -0.43429056205E+01  0.19936885750E+02  0.36696027590E+02  0.00000000000E+00 0.  1.
</event>
<event>
 5   0  0.2413800E+01  0.8100562E+02  0.7957747E-01  0.1324884E+00
       -2   -1    0    0    0  501  0.00000000000E+00  0.00000000000E+00  0.93967385172E+02  0.93967385172E+02  0.00000000000E+00 0.  1.
        1   -1    0    0  501    0  0.00000000000E+00  0.00000000000E+00 -0.17457946998E+02  0.17457946998E+02  0.00000000000E+00 0. -1.
      -24    2    1    2    0    0  0.00000000000E+00  0.00000000000E+00  0.76509438174E+02  0.11142533217E+03  0.81005620296E+02 0.  0.
       11    1    3    3    0    0 -0.38540592969E+02  0.81284117205E+01  0.25275901335E+02  0.46800850118E+02  0.00000000000E+00 0. -1.
      -12    1    3    3    0    0  0.38540592969E+02 -0.81284117205E+01  0.51233536839E+02  0.64624482052E+02  0.00000000000E+00 0.  1.
</event>
<event>
 5   0  0.2413800E+01  0.8193573E+02  0.7957747E-01  0.1322443E+00
       -2   -1    0    0    0  501  0.00000000000E+00  0.00000000000E+00  0.16791260440E+03  0.16791260440E+03  0.00000000000E+00 0.  1.
        1   -1    0    0  501    0  0.00000000000E+00  0.00000000000E+00 -0.99954726538E+01  0.99954726538E+01  0.00000000000E+00 0. -1.
      -24    2    1    2    0    0  0.00000000000E+00  0.00000000000E+00  0.15791713175E+03  0.17790807706E+03  0.81935727141E+02 0.  0.
       11    1    3    3    0    0  0.17763915376E+02  0.82975881084E+01  0.85288140246E+00  0.19624832855E+02  0.00000000000E+00 0. -1.
      -12    1    3    3    0    0 -0.17763915376E+02 -0.82975881084E+01  0.15706425035E+03  0.15828324420E+03  0.00000000000E+00 0.  1.
</event>
<event>
 5   0  0.2413800E+01  0.8215995E+02  0.7957747E-01  0.1321860E+00
        1   -1    0    0  501    0  0.00000000000E+00  0.00000000000E+00  0.57547366426E+02  0.57547366426E+02  0.00000000000E+00 0. -1.
       -2   -1    0    0    0  501  0.00000000000E+00  0.00000000000E+00 -0.29324788489E+02  0.29324788489E+02  0.00000000000E+00 0.  1.
      -24    2    1    2    0    0  0.00000000000E+00  0.00000000000E+00  0.28222577937E+02  0.86872154915E+02  0.82159950062E+02 0.  0.
       11    1    3    3    0    0 -0.35519774698E+02 -0.20632951720E+02  0.13648876633E+02  0.43285851322E+02  0.00000000000E+00 0. -1.
      -12    1    3    3    0    0  0.35519774698E+02  0.20632951720E+02  0.14573701304E+02  0.43586303594E+02  0.00000000000E+00 0.  1.
</event>
<event>
 5   0  0.2413800E+01  0.8006584E+02  0.7957747E-01  0.1327388E+00
       -4   -1    0    0    0  501  0.00000000000E+00  0.00000000000E+00  0.14910023491E+02  0.14910023491E+02  0.00000000000E+00 0.  1.
        3   -1    0    0  501    0  0.00000000000E+00  0.00000000000E+00 -0.10748707147E+03  0.10748707147E+03  0.00000000000E+00 0. -1.
      -24    2    1    2    0    0  0.00000000000E+00  0.00000000000E+00 -0.92577047980E+02  0.12239709496E+03  0.80065841920E+02 0.  0.
       11    1    3    3    0    0 -0.27920207617E+02 -0.11979780533E+02 -0.86140021844E+02  0.91340880761E+02  0.00000000000E+00 0. -1.
      -12    1    3    3    0    0  0.27920207617E+02  0.11979780533E+02 -0.64370261362E+01  0.31056214200E+02  0.00000000000E+00 0.  1.
</event>
<event>
 5   0  0.2413800E+01  0.7768647E+02  0.7957747E-01  0.1333906E+00
        3   -1    0    0  501    0  0.00000000000E+00  0.00000000000E+00  0.66154333922E+01  0.66154333922E+01  0.00000000000E+00 0. -1.
       -4   -1    0    0    0  501  0.00000000000E+00  0.00000000000E+00 -0.22807228320E+03  0.22807228320E+03  0.00000000000E+00 0.  1.
      -24    2    1    2    0    0  0.00000000000E+00  0.00000000000E+00 -0.22145684981E+03  0.23468771659E+03  0.77686472391E+02 0.  0.
       11    1    3    3    0    0 -0.34947396790E+02 -0.17592283678E+01 -0.59784115083E+02  0.69271609214E+02  0.00000000000E+00 0. -1.
      -12    1    3    3    0    0  0.34947396790E+02  0.17592283678E+01 -0.16167273473E+03  0.16541610738E+03  0.00000000000E+00 0.  1.
</event>
<event>
 5   0  0.2413800E+01  0.8066939E+02  0.7957747E-01  0.1325775E+00
       -2   -1    0    0    0  501  0.00000000000E+00  0.00000000000E+00  0.87285465480E+01  0.87285465480E+01  0.00000000000E+00 0.  1.
        1   -1    0    0  501    0  0.00000000000E+00  0.00000000000E+00 -0.18638698765E+03  0.18638698765E+03  0.00000000000E+00 0. -1.
      -24    2    1    2    0    0  0.00000000000E+00  0.00000000000E+00 -0.17765844110E+03  0.19511553420E+03  0.80669386948E+02 0.  0.
       11    1    3    3    0    0  0.31034692919E+02 -0.88825786540E+01 -0.14732167111E+03  0.15081686625E+03  0.00000000000E+00 0. -1.
      -12    1    3    3    0    0 -0.31034692919E+02  0.88825786540E+01 -0.30336769997E+02  0.44298667948E+02  0.00000000000E+00 0.  1.
</event>
<event>
 5   0  0.2413800E+01  0.8175840E+02  0.7957747E-01  0.1322906E+00
       -2   -1    0    0    0  501  0.00000000000E+00  0.00000000000E+00  0.89738326127E+02  0.89738326127E+02  0.00000000000E+00 0.  1.
        1   -1    0    0  501    0  0.00000000000E+00  0.00000000000E+00 -0.18622021597E+02  0.18622021597E+02  0.00000000000E+00 0. -1.
      -24    2    1    2    0    0  0.00000000000E+00  0.00000000000E+00  0.71116304531E+02  0.10836034772E+03  0.81758401334E+02 0.  0.
       11    1    3    3    0    0  0.36113068533E+02  0.48854997785E+01  0.11008786890E+02  0.38068559413E+02  0.00000000000E+00 0. -1.
      -12    1    3    3    0    0 -0.36113068533E+02 -0.48854997785E+01  0.60107517641E+02  0.70291788311E+02  0.00000000000E+00 0.  1.
</event>
<event>
 5   0  0.2413800E+01  0.7932688E+02  0.7957747E-01  0.1329384E+00
       -2   -1    0    0    0  501  0.00000000000E+00  0.00000000000E+00  0.17296137132E+03  0.17296137132E+03  0.00000000000E+00 0.  1.
        1   -1    0    0  501    0  0.00000000000E+00  0.00000000000E+00 -0.90956050269E+01  0.90956050269E+01  0.00000000000E+00 0. -1.
      -24    2    1    2    0    0  0.00000000000E+00  0.00000000000E+00  0.16386576630E+03  0.18205697635E+03  0.79326876113E+02 0.  0.
       11    1    3    3    0    0 -0.73674541408E+01  0.30054853861E+02  0.24989736374E+02  0.39775124703E+02  0.00000000000E+00 0. -1.
      -12    1    3    3    0    0  0.73674541408E+01 -0.30054853861E+02  0.13887602992E+03  0.14228185165E+03  0.00000000000E+00 0.  1.
</event>
<event>
 5   0  0.2413800E+01  0.7960329E+02  0.7957747E-01  0.1328635E+00
       -2   -1    0    0    0  501  0.00000000000E+00  0.00000000000E+00  0.84226072722E+01  0.84226072722E+01  0.00000000000E+00 0.  1.
        1   -1    0    0  501    0  0.00000000000E+00  0.00000000000E+00 -0.18808559539E+03  0.18808559539E+03  0.00000000000E+00 0. -1.
      -24    2    1    2    0    0  0.00000000000E+00  0.00000000000E+00 -0.17966298812E+03  0.19650820266E+03  0.79603293990E+02 0.  0.
       11    1    3    3    0    0 -0.19722612202E+02 -0.23324799932E+02 -0.15282386557E+03  0.15584659641E+03  0.00000000000E+00 0. -1.
      -12    1    3    3    0    0  0.19722612202E+02  0.23324799932E+02 -0.26839122543E+02  0.40661606250E+02  0.00000000000E+00 0.  1.
</event>
<event>
 5   0  0.2413800E+01  0.7989395E+02  0.7957747E-01  0.1327850E+00
       -2   -1    0    0    0  501  0.00000000000E+00  0.00000000000E+00  0.24333385354E+02  0.24333385354E+02  0.00000000000E+00 0.  1.
        1   -1    0    0  501    0  0.00000000000E+00  0.00000000000E+00 -0.65579065298E+02  0.65579065298E+02  0.00000000000E+00 0. -1.
      -24    2    1    2    0    0  0.00000000000E+00  0.00000000000E+00 -0.41245679944E+02  0.89912450652E+02  0.79893946380E+02 0.  0.
       11    1    3    3    0    0 -0.15154448843E+02 -0.31015070338E+02 -0.43247774532E+02  0.55334997152E+02  0.00000000000E+00 0. -1.
      -12    1    3    3    0    0  0.15154448843E+02  0.31015070338E+02  0.20020945882E+01  0.34577453500E+02  0.00000000000E+00 0.  1.
</event>
<event>
 5   0  0.2413800E+01  0.8043619E+02  0.7957747E-01  0.1326396E+00
        1   -1    0    0  501    0  0.00000000000E+00  0.00000000000E+00  0.94333526642E+01  0.94333526642E+01  0.00000000000E+00 0. -1.
       -2   -1    0    0    0  501  0.00000000000E+00  0.00000000000E+00 -0.17146554746E+03  0.17146554746E+03  0.00000000000E+00 0.  1.
      -24    2    1    2    0    0  0.00000000000E+00  0.00000000000E+00 -0.16203219479E+03  0.18089890012E+03  0.80436185363E+02 0.  0.
       11    1    3    3    0    0  0.12783538636E+02 -0.50621014794E+00  0.47350145317E+01  0.13641681399E+02  0.00000000000E+00 0. -1.
      -12    1    3    3    0    0 -0.12783538636E+02  0.50621014794E+00 -0.16676720933E+03  0.16725721872E+03  0.00000000000E+00 0.  1.
</event>
<event>
 5   0  0.2413800E+01  0.7893996E+02  0.7957747E-01  0.1330440E+00
       -2   -1    0    0    0  501  0.00000000000E+00  0.00000000000E+00  0.13144986479E+03  0.13144986479E+03  0.00000000000E+00 0.  1.
        1   -1    0    0  501    0  0.00000000000E+00  0.00000000000E+00 -0.11851509682E+02  0.11851509682E+02  0.00000000000E+00 0. -1.
      -24    2    1    2    0    0  0.00000000000E+00  0.00000000000E+00  0.11959835511E+03  0.14330137447E+03  0.78939960610E+02 0.  0.
       11    1    3    3    0    0  0.10199299987E+01  0.30090240632E+02  0.13466987383E+02  0.32982155595E+02  0.00000000000E+00 0. -1.
      -12    1    3    3    0    0 -0.10199299987E+01 -0.30090240632E+02  0.10613136772E+03  0.11031921887E+03  0.00000000000E+00 0.  1.
</event>
<event>
 5   0  0.2413800E+01  0.8117343E+02  0.7957747E-01  0.1324441E+00
       -2   -1    0    0    0  501  0.00000000000E+00  0.00000000000E+00  0.27046480735E+03  0.27046480735E+03  0.00000000000E+00 0.  1.
        1   -1    0    0  501    0  0.00000000000E+00  0.00000000000E+00 -0.60905579350E+01  0.60905579350E+01  0.00000000000E+00 0. -1.
      -24    2    1    2    0    0  0.00000000000E+00  0.00000000000E+00  0.26437424941E+03  0.27655536528E+03  0.81173433549E+02 0.  0.
       11    1    3    3    0    0  0.18078953806E+02 -0.30932867585E+02  0.67222854900E+02  0.76174819256E+02  0.00000000000E+00 0. -1.
      -12    1    3    3    0    0 -0.18078953806E+02  0.30932867585E+02  0.19715139451E+03  0.20038054603E+03  0.00000000000E+00 0.  1.
</event>
<event>
 5   0  0.2413800E+01  0.7772730E+02  0.7957747E-01  0.1333792E+00
        1   -1    0    0  501    0  0.00000000000E+00  0.00000000000E+00  0.74554709802E+02  0.74554709802E+02  0.00000000000E+00 0. -1.
       -2   -1    0    0    0  501  0.00000000000E+00  0.00000000000E+00 -0.20258725413E+02  0.20258725413E+02  0.00000000000E+00 0.  1.
      -24    2    1    2    0    0  0.00000000000E+00  0.00000000000E+00  0.54295984389E+02  0.94813435215E+02  0.77727302646E+02 0.  0.
       11    1    3    3    0    0  0.31473050614E+01 -0.22871627900E+02  0.65283102793E+02  0.69245219346E+02  0.00000000000E+00 0. -1.
      -12    1    3    3    0    0 -0.31473050614E+01  0.22871627900E+02 -0.10987118404E+02  0.25568215870E+02  0.00000000000E+00 0.  1.
</event>
<event>
 5   0  0.2413800E+01  0.8229751E+02  0.7957747E-01  0.1321504E+00
       -4   -1    0    0    0  501  0.00000000000E+00  0.00000000000E+00  0.29057688481E+02  0.29057688481E+02  0.00000000000E+00 0.  1.
        3   -1    0    0  501    0  0.00000000000E+00  0.00000000000E+00 -0.58270984796E+02  0.58270984796E+02  0.00000000000E+00 0. -1.
      -24    2    1    2    0    0  0.00000000000E+00  0.00000000000E+00 -0.29213296314E+02  0.87328673277E+02  0.82297512081E+02 0.  0.
       11    1    3    3    0    0 -0.71246530226E+01  0.20679661088E+02 -0.51591554612E+02  0.56036573510E+02  0.00000000000E+00 0. -1.
      -12    1    3    3    0    0  0.71246530226E+01 -0.20679661088E+02  0.22378258298E+02  0.31292099767E+02  0.00000000000E+00 0.  1.
</event>
<event>
 5   0  0.2413800E+01  0.8104329E+02  0.7957747E-01  0.1324784E+00
       -4   -1    0    0    0  501  0.00000000000E+00  0.00000000000E+00  0.41027084014E+02  0.41027084014E+02  0.00000000000E+00 0.  1.
        3   -1    0    0  501    0  0.00000000000E+00  0.00000000000E+00 -0.40022430468E+02  0.40022430468E+02  0.00000000000E+00 0. -1.
      -24    2    1    2    0    0  0.00000000000E+00  0.00000000000E+00  0.10046535464E+01  0.81049514482E+02  0.81043287625E+02 0.  0.
       11    1    3    3    0    0  0.11087737520E+02 -0.37815570590E+02  0.99395932862E+01  0.40641737378E+02  0.00000000000E+00 0. -1.
      -12    1    3    3    0    0 -0.11087737520E+02  0.37815570590E+02 -0.89349397399E+01  0.40407777105E+02  0.00000000000E+00 0.  1.
</event>
<event>
 5   0  0.2413800E+01  0.7841317E+02  0.7957747E-01  0.1331887E+00
       -2   -1    0    0    0  501  0.00000000000E+00  0.00000000000E+00  0.10459047068E+03  0.10459047068E+03  0.00000000000E+00 0.  1.
        1   -1    0    0  501    0  0.00000000000E+00  0.00000000000E+00 -0.14696905707E+02  0.14696905707E+02  0.00000000000E+00 0. -1.
      -24    2    1    2    0    0  0.00000000000E+00  0.00000000000E+00  0.89893564970E+02  0.11928737638E+03  0.78413169440E+02 0.  0.
       11    1    3    3    0    0 -0.24517710918E+02 -0.30592600435E+02  0.44396312019E+02  0.59228860118E+02  0.00000000000E+00 0. -1.
      -12    1    3    3    0    0  0.24517710918E+02  0.30592600435E+02  0.45497252951E+02  0.60058516266E+02  0.00000000000E+00 0.  1.
</event>
<event>
 5   0  0.2413800E+01  0.8112721E+02  0.7957747E-01  0.1324563E+00
        1   -1    0    0  501    0  0.00000000000E+00  0.00000000000E+00  0.17461620152E+03  0.17461620152E+03  0.00000000000E+00 0. -1.
       -2   -1    0    0    0  501  0.00000000000E+00  0.00000000000E+00 -0.94229851819E+01  0.94229851819E+01  0.00000000000E+00 0.  1.
      -24    2    1    2    0    0  0.00000000000E+00  0.00000000000E+00  0.16519321634E+03  0.18403918670E+03  0.81127205780E+02 0.  0.
       11    1    3    3    0    0  0.16215663837E+02  0.22495483636E+02  0.14975461246E+03  0.15230048749E+03  0.00000000000E+00 0. -1.
      -12    1    3    3    0    0 -0.16215663837E+02 -0.22495483636E+02  0.15438603878E+02  0.31738699208E+02  0.00000000000E+00 0.  1.
</event>
<event>
 5   0  0.2413800E+01  0.8049276E+02  0.7957747E-01  0.1326246E+00
        1   -1    0    0  501    0  0.00000000000E+00  0.00000000000E+00  0.64931036966E+02  0.64931036966E+02  0.00000000000E+00 0. -1.
       -2   -1    0    0    0  501  0.00000000000E+00  0.00000000000E+00 -0.24946022228E+02  0.24946022228E+02  0.00000000000E+00 0.  1.
      -24    2    1    2    0    0  0.00000000000E+00  0.00000000000E+00  0.39985014738E+02  0.89877059194E+02  0.80492759710E+02 0.  0.
       11    1    3    3    0    0  0.18749437575E+02  0.14652363188E+02  0.56234922051E+02  0.61062260148E+02  0.00000000000E+00 0. -1.
      -12    1    3    3    0    0 -0.18749437575E+02 -0.14652363188E+02 -0.16249907313E+02  0.28814799046E+02  0.00000000000E+00 0.  1.
</event>
<event>
 5   0  0.2413800E+01  0.7696017E+02  0.7957747E-01  0.1335948E+00
       -2   -1    0    0    0  501  0.00000000000E+00  0.00000000000E+00  0.14725515303E+02  0.14725515303E+02  0.00000000000E+00 0.  1.
        1   -1    0    0  501    0  0.00000000000E+00  0.00000000000E+00 -0.10055449818E+03  0.10055449818E+03  0.00000000000E+00 0. -1.
      -24    2    1    2    0    0  0.00000000000E+00  0.00000000000E+00 -0.85828982877E+02  0.11528001348E+03  0.76960166365E+02 0.  0.
       11    1    3    3    0    0 -0.27618716980E+02  0.69695975943E+01 -0.81668265274E+02  0.86493204191E+02  0.00000000000E+00 0. -1.
      -12    1    3    3    0    0  0.27618716980E+02 -0.69695975943E+01 -0.41607176030E+01  0.28786809292E+02  0.00000000000E+00 0.  1.
</event>
<event>
 5   0  0.2413800E+01  0.7705865E+02  0.7957747E-01  0.1335670E+00
        1   -1    0    0  501    0  0.00000000000E+00  0.00000000000E+00  0.31465869444E+02  0.31465869444E+02  0.00000000000E+00 0. -1.
       -2   -1    0    0    0  501  0.00000000000E+00  0.00000000000E+00 -0.47178382338E+02  0.47178382338E+02  0.00000000000E+00 0.  1.
      -24    2    1    2    0    0  0.00000000000E+00  0.00000000000E+00 -0.15712512894E+02  0.78644251782E+02  0.77058648294E+02 0.  0.
       11    1    3    3    0    0 -0.97325110526E+01 -0.28596615038E+02  0.16552825993E+02  0.34445380116E+02  0.00000000000E+00 0. -1.
      -12    1    3    3    0    0  0.97325110526E+01  0.28596615038E+02 -0.32265338887E+02  0.44198871665E+02  0.00000000000E+00 0.  1.
</event>
<event>
 5   0  0.2413800E+01  0.8190508E+02  0.7957747E-01  0.1322523E+00
        1   -1    0    0  501    0  0.00000000000E+00  0.00000000000E+00  0.84926856920E+02  0.84926856920E+02  0.00000000000E+00 0. -1.
       -2   -1    0    0    0  501  0.00000000000E+00  0.00000000000E+00 -0.19747706114E+02  0.19747706114E+02  0.00000000000E+00 0.  1.
      -24    2    1    2    0    0  0.00000000000E+00  0.00000000000E+00  0.65179150807E+02  0.10467456303E+03  0.81905081933E+02 0.  0.
       11    1    3    3    0    0  0.20220960007E+02  0.30384396074E+02  0.56327750109E+02  0.67118657471E+02  0.00000000000E+00 0. -1.
      -12    1    3    3    0    0 -0.20220960007E+02 -0.30384396074E+02  0.88514006977E+01  0.37555905563E+02  0.00000000000E+00 0.  1.
</event>
<event>
 5   0  0.2413800E+01  0.1110992E+03  0.7957747E-01  0.1260510E+00
        1   -1    0    0  501    0  0.00000000000E+00  0.00000000000E+00  0.13303749544E+03  0.13303749544E+03  0.00000000000E+00 0. -1.
       -2   -1    0    0    0  501  0.00000000000E+00  0.00000000000E+00 -0.23194642665E+02  0.23194642665E+02  0.00000000000E+00 0.  1.
      -24    2    1    2    0    0  0.00000000000E+00  0.00000000000E+00  0.10984285277E+03  0.15623213810E+03  0.11109918393E+03 0.  0.
       11    1    3    3    0    0  0.69947146697E+00 -0.48737486330E+02  0.92389886480E+02  0.10445919279E+03  0.00000000000E+00 0. -1.
      -12    1    3    3    0    0 -0.69947146697E+00  0.48737486330E+02  0.17452966292E+02  0.51772945314E+02  0.00000000000E+00 0.  1.
</event>
<event>
 5   0  0.2413800E+01  0.7681700E+02  0.7957747E-01  0.1336354E+00
       -2   -1    0    0    0  501  0.00000000000E+00  0.00000000000E+00  0.16726506933E+03  0.16726506933E+03  0.00000000000E+00 0.  1.
        1   -1    0    0  501    0  0.00000000000E+00  0.00000000000E+00 -0.88196109829E+01  0.88196109829E+01  0.00000000000E+00 0. -1.
      -24    2    1    2    0    0  0.00000000000E+00  0.00000000000E+00  0.15844545835E+03  0.17608468031E+03  0.76816999226E+02 0.  0.
       11    1    3    3    0    0 -0.15088784572E+02 -0.66748154264E+01 -0.28236020185E+00  0.16501645619E+02  0.00000000000E+00 0. -1.
      -12    1    3    3    0    0  0.15088784572E+02  0.66748154264E+01  0.15872781855E+03  0.15958303470E+03  0.00000000000E+00 0.  1.
</event>
<event>
 5   0  0.2413800E+01  0.7977462E+02  0.7957747E-01  0.1328172E+00
       -4   -1    0    0    0  501  0.00000000000E+00  0.00000000000E+00  0.26580754243E+02  0.26580754243E+02  0.00000000000E+00 0.  1.
        3   -1    0    0  501    0  0.00000000000E+00  0.00000000000E+00 -0.59855239474E+02  0.59855239474E+02  0.00000000000E+00 0. -1.
      -24    2    1    2    0    0  0.00000000000E+00  0.00000000000E+00 -0.33274485231E+02  0.86435993716E+02  0.79774617782E+02 0.  0.
       11    1    3    3    0    0  0.30983265904E+02  0.23962697161E+02 -0.84696326037E+01  0.40073785668E+02  0.00000000000E+00 0. -1.
      -12    1    3    3    0    0 -0.30983265904E+02 -0.23962697161E+02 -0.24804852628E+02  0.46362208049E+02  0.00000000000E+00 0.  1.
</event>
<event>
 5   0  0.2413800E+01  0.7988616E+02  0.7957747E-01  0.1327871E+00
       -2   -1    0    0    0  501  0.00000000000E+00  0.00000000000E+00  0.44348935966E+01  0.44348935966E+01  0.00000000000E+00 0.  1.
        1   -1    0    0  501    0  0.00000000000E+00  0.00000000000E+00 -0.35974922468E+03  0.35974922468E+03  0.00000000000E+00 0. -1.
      -24    2    1    2    0    0  0.00000000000E+00  0.00000000000E+00 -0.35531433108E+03  0.36418411828E+03  0.79886157322E+02 0.  0.
       11    1    3    3    0    0  0.11525765720E+02  0.36457550485E+02 -0.23032119458E+03  0.23347344375E+03  0.00000000000E+00 0. -1.
      -12    1    3    3    0    0 -0.11525765720E+02 -0.36457550485E+02 -0.12499313651E+03  0.13071067453E+03  0.00000000000E+00 0.  1.
</event>
<event>
 5   0  0.2413800E+01  0.8078780E+02  0.7957747E-01  0.1325461E+00
        1   -1    0    0  501    0  0.00000000000E+00  0.00000000000E+00  0.22295605567E+02  0.22295605567E+02  0.00000000000E+00 0. -1.
       -2   -1    0    0    0  501  0.00000000000E+00  0.00000000000E+00 -0.73183351191E+02  0.73183351191E+02  0.00000000000E+00 0.  1.
      -24    2    1    2    0    0  0.00000000000E+00  0.00000000000E+00 -0.50887745624E+02  0.95478956758E+02  0.80787799382E+02 0.  0.
       11    1    3    3    0    0 -0.10299691269E+02  0.26286996046E+02  0.86986162367E+01  0.29542439401E+02  0.00000000000E+00 0. -1.
      -12    1    3    3    0    0  0.10299691269E+02 -0.26286996046E+02 -0.59586361861E+02  0.65936517357E+02  0.00000000000E+00 0.  1.
</event>
<event>
 5   0  0.2413800E+01  0.9215798E+02  0.7957747E-01  0.1297822E+00
        1   -1    0    0  501    0  0.00000000000E+00  0.00000000000E+00  0.25763620019E+02  0.25763620019E+02  0.00000000000E+00 0. -1.
       -2   -1    0    0    0  501  0.00000000000E+00  0.00000000000E+00 -0.82413632057E+02  0.82413632057E+02  0.00000000000E+00 0.  1.
      -24    2    1    2    0    0  0.00000000000E+00  0.00000000000E+00 -0.56650012038E+02  0.10817725208E+03  0.92157983934E+02 0.  0.
       11    1    3    3    0    0  0.36984464789E+02  0.23765842129E+02 -0.12119108025E+02  0.45601959028E+02  0.00000000000E+00 0. -1.
      -12    1    3    3    0    0 -0.36984464789E+02 -0.23765842129E+02 -0.44530904014E+02  0.62575293049E+02  0.00000000000E+00 0.  1.
</event>
<event>
 5   0  0.2413800E+01  0.8147507E+02  0.7957747E-01  0.1323647E+00
       -2   -1    0    0    0  501  0.00000000000E+00  0.00000000000E+00  0.36746116044E+03  0.36746116044E+03  0.00000000000E+00 0.  1.
        1   -1    0    0  501    0  0.00000000000E+00  0.00000000000E+00 -0.45162503458E+01  0.45162503458E+01  0.00000000000E+00 0. -1.
      -24    2    1    2    0    0  0.00000000000E+00  0.00000000000E+00  0.36294491009E+03  0.37197741078E+03  0.81475065950E+02 0.  0.
       11    1    3    3    0    0 -0.22943044291E+02 -0.31244541604E+02  0.12427702325E+03  0.13018211540E+03  0.00000000000E+00 0. -1.
      -12    1    3    3    0    0  0.22943044291E+02  0.31244541604E+02  0.23866788684E+03  0.24179529538E+03  0.00000000000E+00 0.  1.
</event>
<event>
 5   0  0.2413800E+01  0.8135902E+02  0.7957747E-01  0.1323952E+00
        1   -1    0    0  501    0  0.00000000000E+00  0.00000000000E+00  0.43259015458E+02  0.43259015458E+02  0.00000000000E+00 0. -1.
       -2   -1    0    0    0  501  0.00000000000E+00  0.00000000000E+00 -0.38253818096E+02  0.38253818096E+02  0.00000000000E+00 0.  1.
      -24    2    1    2    0    0  0.00000000000E+00  0.00000000000E+00  0.50051973623E+01  0.81512833554E+02  0.81359019373E+02 0.  0.
       11    1    3    3    0    0  0.26569195023E+02  0.30796985233E+02  0.18334402439E+01  0.40715327909E+02  0.00000000000E+00 0. -1.
      -12    1    3    3    0    0 -0.26569195023E+02 -0.30796985233E+02  0.31717571183E+01  0.40797505645E+02  0.00000000000E+00 0.  1.
</event>
<event>
 5   0  0.2413800E+01  0.7805685E+02  0.7957747E-01  0.1332874E+00
       -2   -1    0    0    0  501  0.00000000000E+00  0.00000000000E+00  0.13726312086E+03  0.13726312086E+03  0.00000000000E+00 0.  1.
        1   -1    0    0  501    0  0.00000000000E+00  0.00000000000E+00 -0.11097066905E+02  0.11097066905E+02  0.00000000000E+00 0. -1.
      -24    2    1    2    0    0  0.00000000000E+00  0.00000000000E+00  0.12616605396E+03  0.14836018777E+03  0.78056851994E+02 0.  0.
       11    1    3    3    0    0 -0.20140967496E+02 -0.15292077545E+02  0.65813060197E+01  0.26130820811E+02  0.00000000000E+00 0. -1.
      -12    1    3    3    0    0  0.20140967496E+02  0.15292077545E+02  0.11958474794E+03  0.12222936696E+03  0.00000000000E+00 0.  1.
</event>
<event>
 5   0  0.2413800E+01  0.7933000E+02  0.7957747E-01  0.1329376E+00
        3   -1    0    0  501    0  0.00000000000E+00  0.00000000000E+00  0.10052584821E+03  0.10052584821E+03  0.00000000000E+00 0. -1.
       -4   -1    0    0    0  501  0.00000000000E+00  0.00000000000E+00 -0.15650822846E+02  0.15650822846E+02  0.00000000000E+00 0.  1.
      -24    2    1    2    0    0  0.00000000000E+00  0.00000000000E+00  0.84875025360E+02  0.11617667105E+03  0.79330000422E+02 0.  0.
       11    1    3    3    0    0 -0.34004875036E+00 -0.30581277032E+02  0.79427630918E+02  0.85112153605E+02  0.00000000000E+00 0. -1.
      -12    1    3    3    0    0  0.34004875036E+00  0.30581277032E+02  0.54473944419E+01  0.31064517448E+02  0.00000000000E+00 0.  1.
</event>
<event>
 5   0  0.2413800E+01  0.8060434E+02  0.7957747E-01  0.1325948E+00
       -2   -1    0    0    0  501  0.00000000000E+00  0.00000000000E+00  0.40268262191E+02  0.40268262191E+02  0.00000000000E+00 0.  1.
        1   -1    0    0  501    0  0.00000000000E+00  0.00000000000E+00 -0.40336105214E+02  0.40336105214E+02  0.00000000000E+00 0. -1.
      -24    2    1    2    0    0  0.00000000000E+00  0.00000000000E+00 -0.67843022752E-01  0.80604367405E+02  0.80604338853E+02 0.  0.
       11    1    3    3    0    0 -0.68203733912E+00 -0.27622873102E+02 -0.29372925873E+02  0.40326877733E+02  0.00000000000E+00 0. -1.
      -12    1    3    3    0    0  0.68203733912E+00  0.27622873102E+02  0.29305082850E+02  0.40277489671E+02  0.00000000000E+00 0.  1.
</event>
<event>
 4   0  0.2413800E+01  0.2856071E+02  0.7957747E-01  0.1593422E+00
        1   -1    0    0  501    0  0.00000000000E+00  0.00000000000E+00  0.23852295782E+02  0.23852295782E+02  0.00000000000E+00 0. -1.
       -2   -1    0    0    0  501  0.00000000000E+00  0.00000000000E+00 -0.85496381789E+01  0.85496381789E+01  0.00000000000E+00 0.  1.
       11    1    1    2    0    0 -0.77903289458E+01  0.10415916190E+02  0.14338872830E+02  0.19359333904E+02  0.00000000000E+00 0. -1.
      -12    1    1    2    0    0  0.77903289458E+01 -0.10415916190E+02  0.96378477324E+00  0.13042600057E+02  0.00000000000E+00 0.  1.
</event>
<event>
 5   0  0.2413800E+01  0.9596596E+02  0.7957747E-01  0.1289553E+00
        1   -1    0    0  501    0  0.00000000000E+00  0.00000000000E+00  0.35746523066E+01  0.35746523066E+01  0.00000000000E+00 0. -1.
       -2   -1    0    0    0  501  0.00000000000E+00  0.00000000000E+00 -0.64408127040E+03  0.64408127040E+03  0.00000000000E+00 0.  1.
      -24    2    1    2    0    0  0.00000000000E+00  0.00000000000E+00 -0.64050661810E+03  0.64765592271E+03  0.95965964776E+02 0.  0.
       11    1    3    3    0    0  0.14813223831E+02 -0.20041024031E+02 -0.43528098411E+02  0.50157448059E+02  0.00000000000E+00 0. -1.
      -12    1    3    3    0    0 -0.14813223831E+02  0.20041024031E+02 -0.59697851968E+03  0.59749847465E+03  0.00000000000E+00 0.  1.
</event>
<event>
 5   0  0.2413800E+01  0.7972194E+02  0.7957747E-01  0.1328314E+00
       -2   -1    0    0    0  501  0.00000000000E+00  0.00000000000E+00  0.14656715104E+03  0.14656715104E+03  0.00000000000E+00 0.  1.
        1   -1    0    0  501    0  0.00000000000E+00  0.00000000000E+00 -0.10840742655E+02  0.10840742655E+02  0.00000000000E+00 0. -1.
      -24    2    1    2    0    0  0.00000000000E+00  0.00000000000E+00  0.13572640839E+03  0.15740789370E+03  0.79721935905E+02 0.  0.
       11    1    3    3    0    0 -0.16630761178E+02  0.31664687404E+02  0.33118172436E+02  0.48744722701E+02  0.00000000000E+00 0. -1.
      -12    1    3    3    0    0  0.16630761178E+02 -0.31664687404E+02  0.10260823595E+03  0.10866317100E+03  0.00000000000E+00 0.  1.
</event>
<event>
 5   0  0.2413800E+01  0.7488269E+02  0.7957747E-01  0.1341934E+00
       -2   -1    0    0    0  501  0.00000000000E+00  0.00000000000E+00  0.46778431019E+01  0.46778431019E+01  0.00000000000E+00 0.  1.
        1   -1    0    0  501    0  0.00000000000E+00  0.00000000000E+00 -0.29967961209E+03  0.29967961209E+03  0.00000000000E+00 0. -1.
      -24    2    1    2    0    0  0.00000000000E+00  0.00000000000E+00 -0.29500176899E+03  0.30435745519E+03  0.74882687083E+02 0.  0.
       11    1    3    3    0    0  0.90441717991E+01 -0.33684042284E+02 -0.20284954458E+03  0.20582601751E+03  0.00000000000E+00 0. -1.
      -12    1    3    3    0    0 -0.90441717991E+01  0.33684042284E+02 -0.92152224405E+02  0.98531437678E+02  0.00000000000E+00 0.  1.
</event>
<event>
 5   0  0.2413800E+01  0.7996704E+02  0.7957747E-01  0.1327653E+00
        3   -1    0    0  501    0  0.00000000000E+00  0.00000000000E+00  0.53147278544E+01  0.53147278544E+01  0.00000000000E+00 0. -1.
       -4   -1    0    0    0  501  0.00000000000E+00  0.00000000000E+00 -0.30080218219E+03  0.30080218219E+03  0.00000000000E+00 0.  1.
      -24    2    1    2    0    0  0.00000000000E+00  0.00000000000E+00 -0.29548745434E+03  0.30611691004E+03  0.79967036618E+02 0.  0.
       11    1    3    3    0    0  0.31034395216E+02  0.61379433689E+01 -0.54142607539E+02  0.62707495456E+02  0.00000000000E+00 0. -1.
      -12    1    3    3    0    0 -0.31034395216E+02 -0.61379433689E+01 -0.24134484680E+03  0.24340941459E+03  0.00000000000E+00 0.  1.
</event>
<event>
 4   0  0.2413800E+01  0.4290462E+02  0.7957747E-01  0.1476591E+00
        1   -1    0    0  501    0  0.00000000000E+00  0.00000000000E+00  0.47023316915E+02  0.47023316915E+02  0.00000000000E+00 0. -1.
       -2   -1    0    0    0  501  0.00000000000E+00  0.00000000000E+00 -0.97866671694E+01  0.97866671694E+01  0.00000000000E+00 0.  1.
       11    1    1    2    0    0 -0.82346300040E+01 -0.15296250908E+02  0.35283953553E+02  0.39328638439E+02  0.00000000000E+00 0. -1.
      -12    1    1    2    0    0  0.82346300040E+01  0.15296250908E+02  0.19526961923E+01  0.17481345645E+02  0.00000000000E+00 0.  1.
</event>
<event>
 5   0  0.2413800E+01  0.8234597E+02  0.7957747E-01  0.1321378E+00
       -2   -1    0    0    0  501  0.00000000000E+00  0.00000000000E+00  0.12483394772E+03  0.12483394772E+03  0.00000000000E+00 0.  1.
        1   -1    0    0  501    0  0.00000000000E+00  0.00000000000E+00 -0.13579758143E+02  0.13579758143E+02  0.00000000000E+00 0. -1.
      -24    2    1    2    0    0  0.00000000000E+00  0.00000000000E+00  0.11125418958E+03  0.13841370586E+03  0.82345973017E+02 0.  0.
       11    1    3    3    0    0  0.42834980548E+01  0.38512384195E+02  0.32235504348E+02  0.50405156805E+02  0.00000000000E+00 0. -1.
      -12    1    3    3    0    0 -0.42834980548E+01 -0.38512384195E+02  0.79018685228E+02  0.88008549057E+02  0.00000000000E+00 0.  1.
</event>
<event>
 5   0  0.2413800E+01  0.7930243E+02  0.7957747E-01  0.1329451E+00
        1   -1    0    0  501    0  0.00000000000E+00  0.00000000000E+00  0.78226620552E+01  0.78226620552E+01  0.00000000000E+00 0. -1.
       -2   -1    0    0    0  501  0.00000000000E+00  0.00000000000E+00 -0.20098258434E+03  0.20098258434E+03  0.00000000000E+00 0.  1.
      -24    2    1    2    0    0  0.00000000000E+00  0.00000000000E+00 -0.19315992229E+03  0.20880524640E+03  0.79302429629E+02 0.  0.
       11    1    3    3    0    0 -0.19950513633E+02 -0.33648794737E+02 -0.79525266264E+02  0.88625799607E+02  0.00000000000E+00 0. -1.
      -12    1    3    3    0    0  0.19950513633E+02  0.33648794737E+02 -0.11363465602E+03  0.12017944679E+03  0.00000000000E+00 0.  1.
</event>
<event>
 5   0  0.2413800E+01  0.8921363E+02  0.7957747E-01  0.1304530E+00
       -2   -1    0    0    0  501  0.00000000000E+00  0.00000000000E+00  0.40094488655E+02  0.40094488655E+02  0.00000000000E+00 0.  1.
        1   -1    0    0  501    0  0.00000000000E+00  0.00000000000E+00 -0.49626970535E+02  0.49626970535E+02  0.00000000000E+00 0. -1.
      -24    2    1    2    0    0  0.00000000000E+00  0.00000000000E+00 -0.95324818799E+01  0.89721459190E+02  0.89213631404E+02 0.  0.
       11    1    3    3    0    0  0.41194122187E+02  0.15633335909E+02 -0.11763656122E+02  0.45604171956E+02  0.00000000000E+00 0. -1.
      -12    1    3    3    0    0 -0.41194122187E+02 -0.15633335909E+02  0.22311742420E+01  0.44117287234E+02  0.00000000000E+00 0.  1.
</event>
<event>
 5   0  0.2413800E+01  0.8256875E+02  0.7957747E-01  0.1320803E+00
        1   -1    0    0  501    0  0.00000000000E+00  0.00000000000E+00  0.48617054902E+03  0.48617054902E+03  0.00000000000E+00 0. -1.
       -2   -1    0    0    0  501  0.00000000000E+00  0.00000000000E+00 -0.35057644278E+01  0.35057644278E+01  0.00000000000E+00 0.  1.
      -24    2    1    2    0    0  0.00000000000E+00  0.00000000000E+00  0.48266478459E+03  0.48967631344E+03  0.82568745094E+02 0.  0.
       11    1    3    3    0    0 -0.10339921029E+02  0.21864707127E+02  0.42910334202E+02  0.49257244806E+02  0.00000000000E+00 0. -1.
      -12    1    3    3    0    0  0.10339921029E+02 -0.21864707127E+02  0.43975445039E+03  0.44041906864E+03  0.00000000000E+00 0.  1.
</event>
<event>
 5   0  0.2413800E+01  0.7870243E+02  0.7957747E-01  0.1331091E+00
       -2   -1    0    0    0  501  0.00000000000E+00  0.00000000000E+00  0.53555122945E+01  0.53555122945E+01  0.00000000000E+00 0.  1.
        1   -1    0    0  501    0  0.00000000000E+00  0.00000000000E+00 -0.28914475720E+03  0.28914475720E+03  0.00000000000E+00 0. -1.
      -24    2    1    2    0    0  0.00000000000E+00  0.00000000000E+00 -0.28378924491E+03  0.29450026950E+03  0.78702434577E+02 0.  0.
       11    1    3    3    0    0 -0.24054746484E+02  0.25738408692E+02 -0.20750383937E+03  0.21047313335E+03  0.00000000000E+00 0. -1.
      -12    1    3    3    0    0  0.24054746484E+02 -0.25738408692E+02 -0.76285405540E+02  0.84027136146E+02  0.00000000000E+00 0.  1.
</event>
<event>
 5   0  0.2413800E+01  0.7173121E+02  0.7957747E-01  0.1351449E+00
       -4   -1    0    0    0  501  0.00000000000E+00  0.00000000000E+00  0.38917108783E+02  0.38917108783E+02  0.00000000000E+00 0.  1.
        3   -1    0    0  501    0  0.00000000000E+00  0.00000000000E+00 -0.33053366902E+02  0.33053366902E+02  0.00000000000E+00 0. -1.
      -24    2    1    2    0    0  0.00000000000E+00  0.00000000000E+00  0.58637418811E+01  0.71970475686E+02  0.71731205912E+02 0.  0.
       11    1    3    3    0    0  0.17339604146E+02 -0.41426083362E+01 -0.28292965988E+02  0.33441217086E+02  0.00000000000E+00 0. -1.
      -12    1    3    3    0    0 -0.17339604146E+02  0.41426083362E+01  0.34156707869E+02  0.38529258600E+02  0.00000000000E+00 0.  1.
</event>
<event>
 5   0  0.2413800E+01  0.7821743E+02  0.7957747E-01  0.1332428E+00
       -4   -1    0    0    0  501  0.00000000000E+00  0.00000000000E+00  0.87383713829E+02  0.87383713829E+02  0.00000000000E+00 0.  1.
        3   -1    0    0  501    0  0.00000000000E+00  0.00000000000E+00 -0.17503166811E+02  0.17503166811E+02  0.00000000000E+00 0. -1.
      -24    2    1    2    0    0  0.00000000000E+00  0.00000000000E+00  0.69880547017E+02  0.10488688064E+03  0.78217433344E+02 0.  0.
       11    1    3    3    0    0  0.21142091080E+02 -0.31813293342E+02  0.23687497568E+02  0.44946314527E+02  0.00000000000E+00 0. -1.
      -12    1    3    3    0    0 -0.21142091080E+02  0.31813293342E+02  0.46193049450E+02  0.59940566113E+02  0.00000000000E+00 0.  1.
</event>
<event>
 5   0  0.2413800E+01  0.7970850E+02  0.7957747E-01  0.1328350E+00
       -2   -1    0    0    0  501  0.00000000000E+00  0.00000000000E+00  0.12864879568E+02  0.12864879568E+02  0.00000000000E+00 0.  1.
        1   -1    0    0  501    0  0.00000000000E+00  0.00000000000E+00 -0.12346490418E+03  0.12346490418E+03  0.00000000000E+00 0. -1.
      -24    2    1    2    0    0  0.00000000000E+00  0.00000000000E+00 -0.11060002461E+03  0.13632978375E+03  0.79708496993E+02 0.  0.
       11    1    3    3    0    0 -0.25474146699E+02  0.30422908008E+02 -0.48928938130E+02  0.62996241699E+02  0.00000000000E+00 0. -1.
      -12    1    3    3    0    0  0.25474146699E+02 -0.30422908008E+02 -0.61671086483E+02  0.73333542051E+02  0.00000000000E+00 0.  1.
</event>
<event>
 5   0  0.2413800E+01  0.8205348E+02  0.7957747E-01  0.1322137E+00
       -4   -1    0    0    0  501  0.00000000000E+00  0.00000000000E+00  0.51911395569E+02  0.51911395569E+02  0.00000000000E+00 0.  1.
        3   -1    0    0  501    0  0.00000000000E+00  0.00000000000E+00 -0.32424350826E+02  0.32424350826E+02  0.00000000000E+00 0. -1.
      -24    2    1    2    0    0  0.00000000000E+00  0.00000000000E+00  0.19487044743E+02  0.84335746395E+02  0.82053477727E+02 0.  0.
       11    1    3    3    0    0  0.38647537197E+02 -0.92113948034E+01  0.20261000895E+02  0.44598095059E+02  0.00000000000E+00 0. -1.
      -12    1    3    3    0    0 -0.38647537197E+02  0.92113948034E+01 -0.77395615230E+00  0.39737651336E+02  0.00000000000E+00 0.  1.
</event>
<event>
 5   0  0.2413800E+01  0.7846297E+02  0.7957747E-01  0.1331750E+00
       -2   -1    0    0    0  501  0.00000000000E+00  0.00000000000E+00  0.14318943964E+02  0.14318943964E+02  0.00000000000E+00 0.  1.
        1   -1    0    0  501    0  0.00000000000E+00  0.00000000000E+00 -0.10748762214E+03  0.10748762214E+03  0.00000000000E+00 0. -1.
      -24    2    1    2    0    0  0.00000000000E+00  0.00000000000E+00 -0.93168678180E+02  0.12180656611E+03  0.78462965489E+02 0.  0.
       11    1    3    3    0    0 -0.16298979516E+02  0.26592759698E+02 -0.83526363191E+02  0.89159884194E+02  0.00000000000E+00 0. -1.
      -12    1    3    3    0    0  0.16298979516E+02 -0.26592759698E+02 -0.96423149884E+01  0.32646681913E+02  0.00000000000E+00 0.  1.
</event>
<event>
 5   0  0.2413800E+01  0.8512641E+02  0.7957747E-01  0.1314341E+00
        3   -1    0    0  501    0  0.00000000000E+00  0.00000000000E+00  0.88558740659E+01  0.88558740659E+01  0.00000000000E+00 0. -1.
       -4   -1    0    0    0  501  0.00000000000E+00  0.00000000000E+00 -0.20456777628E+03  0.20456777628E+03  0.00000000000E+00 0.  1.
      -24    2    1    2    0    0  0.00000000000E+00  0.00000000000E+00 -0.19571190221E+03  0.21342365034E+03  0.85126411052E+02 0.  0.
       11    1    3    3    0    0 -0.18337277966E+02  0.11946633261E+02 -0.63317276951E+01  0.22783076725E+02  0.00000000000E+00 0. -1.
      -12    1    3    3    0    0  0.18337277966E+02 -0.11946633261E+02 -0.18938017451E+03  0.19064057362E+03  0.00000000000E+00 0.  1.
</event>
<event>
 5   0  0.2413800E+01  0.8020462E+02  0.7957747E-01  0.1327016E+00
       -4   -1    0    0    0  501  0.00000000000E+00  0.00000000000E+00  0.64514530627E+01  0.64514530627E+01  0.00000000000E+00 0.  1.
        3   -1    0    0  501    0  0.00000000000E+00  0.00000000000E+00 -0.24927643507E+03  0.24927643507E+03  0.00000000000E+00 0. -1.
      -24    2    1    2    0    0  0.00000000000E+00  0.00000000000E+00 -0.24282498201E+03  0.25572788814E+03  0.80204618832E+02 0.  0.
       11    1    3    3    0    0  0.16623779545E+02 -0.32340774251E+02 -0.17532637216E+03  0.17905756756E+03  0.00000000000E+00 0. -1.
      -12    1    3    3    0    0 -0.16623779545E+02  0.32340774251E+02 -0.67498609847E+02  0.76670320573E+02  0.00000000000E+00 0.  1.
</event>
<event>
 5   0  0.2413800E+01  0.6732007E+02  0.7957747E-01  0.1365743E+00
       -2   -1    0    0    0  501  0.00000000000E+00  0.00000000000E+00  0.10992318914E+02  0.10992318914E+02  0.00000000000E+00 0.  1.
        1   -1    0    0  501    0  0.00000000000E+00  0.00000000000E+00 -0.10307179347E+03  0.10307179347E+03  0.00000000000E+00 0. -1.
      -24    2    1    2    0    0  0.00000000000E+00  0.00000000000E+00 -0.92079474557E+02  0.11406411238E+03  0.67320072040E+02 0.  0.
       11    1    3    3    0    0  0.12382525596E+02  0.16580427705E+02 -0.91020335939E+02  0.93343125496E+02  0.00000000000E+00 0. -1.
      -12    1    3    3    0    0 -0.12382525596E+02 -0.16580427705E+02 -0.10591386180E+01  0.20720986888E+02  0.00000000000E+00 0.  1.
</event>
<event>
 5   0  0.2413800E+01  0.8089530E+02  0.7957747E-01  0.1325176E+00
        1   -1    0    0  501    0  0.00000000000E+00  0.00000000000E+00  0.21515787918E+02  0.21515787918E+02  0.00000000000E+00 0. -1.
       -2   -1    0    0    0  501  0.00000000000E+00  0.00000000000E+00 -0.76037767383E+02  0.76037767383E+02  0.00000000000E+00 0.  1.
      -24    2    1    2    0    0  0.00000000000E+00  0.00000000000E+00 -0.54521979465E+02  0.97553555300E+02  0.80895302131E+02 0.  0.
       11    1    3    3    0    0 -0.27954420739E+02 -0.27751251666E+02 -0.16180207251E+02  0.42583808126E+02  0.00000000000E+00 0. -1.
      -12    1    3    3    0    0  0.27954420739E+02  0.27751251666E+02 -0.38341772214E+02  0.54969747174E+02  0.00000000000E+00 0.  1.
</event>
<event>
 5   0  0.2413800E+01  0.8056180E+02  0.7957747E-01  0.1326062E+00
       -2   -1    0    0    0  501  0.00000000000E+00  0.00000000000E+00  0.59141811060E+02  0.59141811060E+02  0.00000000000E+00 0.  1.
        1   -1    0    0  501    0  0.00000000000E+00  0.00000000000E+00 -0.27434918052E+02  0.27434918052E+02  0.00000000000E+00 0. -1.
      -24    2    1    2    0    0  0.00000000000E+00  0.00000000000E+00  0.31706893008E+02  0.86576729111E+02  0.80561795905E+02 0.  0.
       11    1    3    3    0    0  0.15048317894E+02 -0.21003244512E+02 -0.17356273497E+02  0.31126008115E+02  0.00000000000E+00 0. -1.
      -12    1    3    3    0    0 -0.15048317894E+02  0.21003244512E+02  0.49063166505E+02  0.55450720996E+02  0.00000000000E+00 0.  1.
</event>
<event>
 5   0  0.2413800E+01  0.8228553E+02  0.7957747E-01  0.1321535E+00
       -2   -1    0    0    0  501  0.00000000000E+00  0.00000000000E+00  0.64464543705E+02  0.64464543705E+02  0.00000000000E+00 0.  1.
        1   -1    0    0  501    0  0.00000000000E+00  0.00000000000E+00 -0.26258267382E+02  0.26258267382E+02  0.00000000000E+00 0. -1.
      -24    2    1    2    0    0  0.00000000000E+00  0.00000000000E+00  0.38206276323E+02  0.90722811086E+02  0.82285532756E+02 0.  0.
       11    1    3    3    0    0  0.81582569778E+01 -0.13787602728E+02 -0.22678083322E+02  0.27765997354E+02  0.00000000000E+00 0. -1.
      -12    1    3    3    0    0 -0.81582569778E+01  0.13787602728E+02  0.60884359645E+02  0.62956813732E+02  0.00000000000E+00 0.  1.
</event>
<event>
 5   0  0.2413800E+01  0.7671002E+02  0.7957747E-01  0.1336657E+00
        1   -1    0    0  501    0  0.00000000000E+00  0.00000000000E+00  0.81646469675E+01  0.81646469675E+01  0.00000000000E+00 0. -1.
       -2   -1    0    0    0  501  0.00000000000E+00  0.00000000000E+00 -0.18018008632E+03  0.18018008632E+03  0.00000000000E+00 0.  1.
      -24    2    1    2    0    0  0.00000000000E+00  0.00000000000E+00 -0.17201543935E+03  0.18834473329E+03  0.76710020086E+02 0.  0.
       11    1    3    3    0    0 -0.23025550933E+02 -0.30456424633E+02 -0.77041065296E+02  0.85983111941E+02  0.00000000000E+00 0. -1.
      -12    1    3    3    0    0  0.23025550933E+02  0.30456424633E+02 -0.94974374059E+02  0.10236162135E+03  0.00000000000E+00 0.  1.
</event>
<event>
 5   0  0.2413800E+01  0.8200773E+02  0.7957747E-01  0.1322256E+00
       -2   -1    0    0    0  501  0.00000000000E+00  0.00000000000E+00  0.53680485610E+01  0.53680485610E+01  0.00000000000E+00 0.  1.
        1   -1    0    0  501    0  0.00000000000E+00  0.00000000000E+00 -0.31320820435E+03  0.31320820435E+03  0.00000000000E+00 0. -1.
      -24    2    1    2    0    0  0.00000000000E+00  0.00000000000E+00 -0.30784015579E+03  0.31857625291E+03  0.82007727701E+02 0.  0.
       11    1    3    3    0    0  0.18030813444E+02 -0.32495240835E+02 -0.22123504803E+03  0.22433456574E+03  0.00000000000E+00 0. -1.
      -12    1    3    3    0    0 -0.18030813444E+02  0.32495240835E+02 -0.86605107765E+02  0.94241687174E+02  0.00000000000E+00 0.  1.
</event>
<event>
 5   0  0.2413800E+01  0.8048154E+02  0.7957747E-01  0.1326275E+00
        1   -1    0    0  501    0  0.00000000000E+00  0.00000000000E+00  0.23675209011E+03  0.23675209011E+03  0.00000000000E+00 0. -1.
       -2   -1    0    0    0  501  0.00000000000E+00  0.00000000000E+00 -0.68397263918E+01  0.68397263918E+01  0.00000000000E+00 0.  1.
      -24    2    1    2    0    0  0.00000000000E+00  0.00000000000E+00  0.22991236372E+03  0.24359181650E+03  0.80481538729E+02 0.  0.
       11    1    3    3    0    0  0.23384634584E+02 -0.26903147977E+02  0.17147483218E+03  0.17514062515E+03  0.00000000000E+00 0. -1.
      -12    1    3    3    0    0 -0.23384634584E+02  0.26903147977E+02  0.58437531540E+02  0.68451191357E+02  0.00000000000E+00 0.  1.
</event>
<event>
 5   0  0.2413800E+01  0.8077384E+02  0.7957747E-01  0.1325498E+00
       -2   -1    0    0    0  501  0.00000000000E+00  0.00000000000E+00  0.14939833987E+03  0.14939833987E+03  0.00000000000E+00 0.  1.
        1   -1    0    0  501    0  0.00000000000E+00  0.00000000000E+00 -0.10917813731E+02  0.10917813731E+02  0.00000000000E+00 0. -1.
      -24    2    1    2    0    0  0.00000000000E+00  0.00000000000E+00  0.13848052614E+03  0.16031615360E+03  0.80773838497E+02 0.  0.
       11    1    3    3    0    0 -0.36028404243E+02  0.31881778815E+01  0.33575792545E+02  0.49351233374E+02  0.00000000000E+00 0. -1.
      -12    1    3    3    0    0  0.36028404243E+02 -0.31881778815E+01  0.10490473359E+03  0.11096492022E+03  0.00000000000E+00 0.  1.
</event>
<event>
 5   0  0.2413800E+01  0.8082607E+02  0.7957747E-01  0.1325359E+00
       -4   -1    0    0    0  501  0.00000000000E+00  0.00000000000E+00  0.19249478431E+02  0.19249478431E+02  0.00000000000E+00 0.  1.
        3   -1    0    0  501    0  0.00000000000E+00  0.00000000000E+00 -0.84844545074E+02  0.84844545074E+02  0.00000000000E+00 0. -1.
      -24    2    1    2    0    0  0.00000000000E+00  0.00000000000E+00 -0.65595066643E+02  0.10409402351E+03  0.80826066103E+02 0.  0.
       11    1    3    3    0    0 -0.32670157266E+01 -0.28186594044E+02 -0.69857425059E+02  0.75400380048E+02  0.00000000000E+00 0. -1.
      -12    1    3    3    0    0  0.32670157266E+01  0.28186594044E+02  0.42623584161E+01  0.28693643457E+02  0.00000000000E+00 0.  1.
</event>
<event>
 5   0  0.2413800E+01  0.8004691E+02  0.7957747E-01  0.1327439E+00
        3   -1    0    0  501    0  0.00000000000E+00  0.00000000000E+00  0.47903306489E+01  0.47903306489E+01  0.00000000000E+00 0. -1.
       -4   -1    0    0    0  501  0.00000000000E+00  0.00000000000E+00 -0.33439799653E+03  0.33439799653E+03  0.00000000000E+00 0.  1.
      -24    2    1    2    0    0  0.00000000000E+00  0.00000000000E+00 -0.32960766588E+03  0.33918832718E+03  0.80046910539E+02 0.  0.
       11    1    3    3    0    0  0.95568117497E+01 -0.30710696597E+01 -0.63035638210E+00  0.10057905788E+02  0.00000000000E+00 0. -1.
      -12    1    3    3    0    0 -0.95568117497E+01  0.30710696597E+01 -0.32897730950E+03  0.32913042139E+03  0.00000000000E+00 0.  1.
</event>
<event>
 5   0  0.2413800E+01  0.7426140E+02  0.7957747E-01  0.1343767E+00
        1   -1    0    0  501    0  0.00000000000E+00  0.00000000000E+00  0.88583372520E+02  0.88583372520E+02  0.00000000000E+00 0. -1.
       -2   -1    0    0    0  501  0.00000000000E+00  0.00000000000E+00 -0.15563741636E+02  0.15563741636E+02  0.00000000000E+00 0.  1.
      -24    2    1    2    0    0  0.00000000000E+00  0.00000000000E+00  0.73019630884E+02  0.10414711416E+03  0.74261395708E+02 0.  0.
       11    1    3    3    0    0  0.14208537985E+02  0.31451258683E+02  0.17299747292E+02  0.38604992952E+02  0.00000000000E+00 0. -1.
      -12    1    3    3    0    0 -0.14208537985E+02 -0.31451258683E+02  0.55719883591E+02  0.65542121204E+02  0.00000000000E+00 0.  1.
</event>
<event>
 5   0  0.2413800E+01  0.7655172E+02  0.7957747E-01  0.1337108E+00
       -2   -1    0    0    0  501  0.00000000000E+00  0.00000000000E+00  0.17723798285E+02  0.17723798285E+02  0.00000000000E+00 0.  1.
        1   -1    0    0  501    0  0.00000000000E+00  0.00000000000E+00 -0.82659568275E+02  0.82659568275E+02  0.00000000000E+00 0. -1.
      -24    2    1    2    0    0  0.00000000000E+00  0.00000000000E+00 -0.64935769990E+02  0.10038336656E+03  0.76551721455E+02 0.  0.
       11    1    3    3    0    0 -0.12550960173E+02 -0.32136947701E+02 -0.54202954249E+02  0.64251616775E+02  0.00000000000E+00 0. -1.
      -12    1    3    3    0    0  0.12550960173E+02  0.32136947701E+02 -0.10732815741E+02  0.36131749785E+02  0.00000000000E+00 0.  1.
</event>
<event>
 5   0  0.2413800E+01  0.8051211E+02  0.7957747E-01  0.1326194E+00
       -4   -1    0    0    0  501  0.00000000000E+00  0.00000000000E+00  0.17441285896E+03  0.17441285896E+03  0.00000000000E+00 0.  1.
        3   -1    0    0  501    0  0.00000000000E+00  0.00000000000E+00 -0.92914588039E+01  0.92914588039E+01  0.00000000000E+00 0. -1.
      -24    2    1    2    0    0  0.00000000000E+00  0.00000000000E+00  0.16512140016E+03  0.18370431777E+03  0.80512108255E+02 0.  0.
       11    1    3    3    0    0  0.24487062190E+02  0.14894116259E+02  0.18060887427E+02  0.33876932690E+02  0.00000000000E+00 0. -1.
      -12    1    3    3    0    0 -0.24487062190E+02 -0.14894116259E+02  0.14706051273E+03  0.14982738508E+03  0.00000000000E+00 0.  1.
</event>
<event>
 5   0  0.2413800E+01  0.7755088E+02  0.7957747E-01  0.1334285E+00
       -2   -1    0    0    0  501  0.00000000000E+00  0.00000000000E+00  0.24277617258E+02  0.24277617258E+02  0.00000000000E+00 0.  1.
        1   -1    0    0  501    0  0.00000000000E+00  0.00000000000E+00 -0.61930898774E+02  0.61930898774E+02  0.00000000000E+00 0. -1.
      -24    2    1    2    0    0  0.00000000000E+00  0.00000000000E+00 -0.37653281516E+02  0.86208516032E+02  0.77550877672E+02 0.  0.
       11    1    3    3    0    0  0.21662835648E+02  0.81751201764E+01 -0.53402405545E+02  0.58205909977E+02  0.00000000000E+00 0. -1.
      -12    1    3    3    0    0 -0.21662835648E+02 -0.81751201764E+01  0.15749124029E+02  0.28002606056E+02  0.00000000000E+00 0.  1.
</event>
<event>
 5   0  0.2413800E+01  0.8071245E+02  0.7957747E-01  0.1325661E+00
       -2   -1    0    0    0  501  0.00000000000E+00  0.00000000000E+00  0.68222491442E+02  0.68222491442E+02  0.00000000000E+00 0.  1.
        1   -1    0    0  501    0  0.00000000000E+00  0.00000000000E+00 -0.23872257524E+02  0.23872257524E+02  0.00000000000E+00 0. -1.
      -24    2    1    2    0    0  0.00000000000E+00  0.00000000000E+00  0.44350233918E+02  0.92094748966E+02  0.80712449713E+02 0.  0.
       11    1    3    3    0    0  0.26216841457E+02 -0.28621457642E+02  0.95662067976E+01  0.39975278936E+02  0.00000000000E+00 0. -1.
      -12    1    3    3    0    0 -0.26216841457E+02  0.28621457642E+02  0.34784027121E+02  0.52119470030E+02  0.00000000000E+00 0.  1.
</event>
<event>
 5   0  0.2413800E+01  0.7748359E+02  0.7957747E-01  0.1334474E+00
       -2   -1    0    0    0  501  0.00000000000E+00  0.00000000000E+00  0.13284820066E+03  0.13284820066E+03  0.00000000000E+00 0.  1.
        1   -1    0    0  501    0  0.00000000000E+00  0.00000000000E+00 -0.11298059213E+02  0.11298059213E+02  0.00000000000E+00 0. -1.
      -24    2    1    2    0    0  0.00000000000E+00  0.00000000000E+00  0.12155014145E+03  0.14414625988E+03  0.77483594067E+02 0.  0.
       11    1    3    3    0    0 -0.13247605390E+02  0.30445564176E+02  0.23638201932E+02  0.40757772475E+02  0.00000000000E+00 0. -1.
      -12    1    3    3    0    0  0.13247605390E+02 -0.30445564176E+02  0.97911939520E+02  0.10338848740E+03  0.00000000000E+00 0.  1.
</event>
<event>
 5   0  0.2413800E+01  0.8101159E+02  0.7957747E-01  0.1324868E+00
        1   -1    0    0  501    0  0.00000000000E+00  0.00000000000E+00  0.26454430106E+02  0.26454430106E+02  0.00000000000E+00 0. -1.
       -2   -1    0    0    0  501  0.00000000000E+00  0.00000000000E+00 -0.62020590682E+02  0.62020590682E+02  0.00000000000E+00 0.  1.
      -24    2    1    2    0    0  0.00000000000E+00  0.00000000000E+00 -0.35566160577E+02  0.88475020788E+02  0.81011588834E+02 0.  0.
       11    1    3    3    0    0 -0.15069813612E+02 -0.29544319740E+02  0.76133747998E+01  0.34028364449E+02  0.00000000000E+00 0. -1.
      -12    1    3    3    0    0  0.15069813612E+02  0.29544319740E+02 -0.43179535376E+02  0.54446656339E+02  0.00000000000E+00 0.  1.
</event>
<event>
 5   0  0.2413800E+01  0.7993210E+02  0.7957747E-01  0.1327747E+00
        1   -1    0    0  501    0  0.00000000000E+00  0.00000000000E+00  0.38006436008E+02  0.38006436008E+02  0.00000000000E+00 0. -1.
       -2   -1    0    0    0  501  0.00000000000E+00  0.00000000000E+00 -0.42026697751E+02  0.42026697751E+02  0.00000000000E+00 0.  1.
      -24    2    1    2    0    0  0.00000000000E+00  0.00000000000E+00 -0.40202617427E+01  0.80033133760E+02  0.79932096150E+02 0.  0.
       11    1    3    3    0    0  0.12358080582E+02 -0.32369916720E+02  0.17933664907E+02  0.39014740818E+02  0.00000000000E+00 0. -1.
      -12    1    3    3    0    0 -0.12358080582E+02  0.32369916720E+02 -0.21953926649E+02  0.41018392941E+02  0.00000000000E+00 0.  1.
</event>
<event>
 5   0  0.2413800E+01  0.6959232E+02  0.7957747E-01  0.1358229E+00
       -4   -1    0    0    0  501  0.00000000000E+00  0.00000000000E+00  0.50445485280E+02  0.50445485280E+02  0.00000000000E+00 0.  1.
        3   -1    0    0  501    0  0.00000000000E+00  0.00000000000E+00 -0.24001605151E+02  0.24001605151E+02  0.00000000000E+00 0. -1.
      -24    2    1    2    0    0  0.00000000000E+00  0.00000000000E+00  0.26443880128E+02  0.74447090431E+02  0.69592316224E+02 0.  0.
       11    1    3    3    0    0  0.17107493801E+02  0.45608942794E+01 -0.18822771385E+02  0.25841145938E+02  0.00000000000E+00 0. -1.
      -12    1    3    3    0    0 -0.17107493801E+02 -0.45608942794E+01  0.45266651513E+02  0.48605944493E+02  0.00000000000E+00 0.  1.
</event>
<event>
 5   0  0.2413800E+01  0.8478638E+02  0.7957747E-01  0.1315185E+00
        3   -1    0    0  501    0  0.00000000000E+00  0.00000000000E+00  0.54175792176E+02  0.54175792176E+02  0.00000000000E+00 0. -1.
       -4   -1    0    0    0  501  0.00000000000E+00  0.00000000000E+00 -0.33173169157E+02  0.33173169157E+02  0.00000000000E+00 0.  1.
      -24    2    1    2    0    0  0.00000000000E+00  0.00000000000E+00  0.21002623019E+02  0.87348961334E+02  0.84786383768E+02 0.  0.
       11    1    3    3    0    0 -0.11419715777E+02  0.13956421267E+02  0.50027435343E+02  0.53178340422E+02  0.00000000000E+00 0. -1.
      -12    1    3    3    0    0  0.11419715777E+02 -0.13956421267E+02 -0.29024812324E+02  0.34170620912E+02  0.00000000000E+00 0.  1.
</event>
<event>
 5   0  0.2413800E+01  0.8055914E+02  0.7957747E-01  0.1326069E+00
       -2   -1    0    0    0  501  0.00000000000E+00  0.00000000000E+00  0.11620646801E+02  0.11620646801E+02  0.00000000000E+00 0.  1.
        1   -1    0    0  501    0  0.00000000000E+00  0.00000000000E+00 -0.13961733711E+03  0.13961733711E+03  0.00000000000E+00 0. -1.
      -24    2    1    2    0    0  0.00000000000E+00  0.00000000000E+00 -0.12799669031E+03  0.15123798391E+03  0.80559140061E+02 0.  0.
       11    1    3    3    0    0 -0.10960725933E+02 -0.30305653926E+02 -0.10936173215E+03  0.11401122151E+03  0.00000000000E+00 0. -1.
      -12    1    3    3    0    0  0.10960725933E+02  0.30305653926E+02 -0.18634958161E+02  0.37226762397E+02  0.00000000000E+00 0.  1.
</event>
<event>
 5   0  0.2413800E+01  0.7906137E+02  0.7957747E-01  0.1330108E+00
       -2   -1    0    0    0  501  0.00000000000E+00  0.00000000000E+00  0.83212473468E+02  0.83212473468E+02  0.00000000000E+00 0.  1.
        1   -1    0    0  501    0  0.00000000000E+00  0.00000000000E+00 -0.18779335893E+02  0.18779335893E+02  0.00000000000E+00 0. -1.
      -24    2    1    2    0    0  0.00000000000E+00  0.00000000000E+00  0.64433137575E+02  0.10199180936E+03  0.79061368309E+02 0.  0.
       11    1    3    3    0    0  0.19119464409E+02 -0.19568811654E+02 -0.45930991730E+01  0.27741464793E+02  0.00000000000E+00 0. -1.
      -12    1    3    3    0    0 -0.19119464409E+02  0.19568811654E+02  0.69026236748E+02  0.74250344568E+02  0.00000000000E+00 0.  1.
</event>
<event>
 5   0  0.2413800E+01  0.8023813E+02  0.7957747E-01  0.1326926E+00
       -2   -1    0    0    0  501  0.00000000000E+00  0.00000000000E+00  0.94101248217E+02  0.94101248217E+02  0.00000000000E+00 0.  1.
        1   -1    0    0  501    0  0.00000000000E+00  0.00000000000E+00 -0.17104334364E+02  0.17104334364E+02  0.00000000000E+00 0. -1.
      -24    2    1    2    0    0  0.00000000000E+00  0.00000000000E+00  0.76996913853E+02  0.11120558258E+03  0.80238125939E+02 0.  0.
       11    1    3    3    0    0 -0.21292618490E+02 -0.21336823589E+02  0.18061557893E+01  0.30197646295E+02  0.00000000000E+00 0. -1.
      -12    1    3    3    0    0  0.21292618490E+02  0.21336823589E+02  0.75190758064E+02  0.81007936286E+02  0.00000000000E+00 0.  1.
</event>
<event>
 5   0  0.2413800E+01  0.7973559E+02  0.7957747E-01  0.1328277E+00
        3   -1    0    0  501    0  0.00000000000E+00  0.00000000000E+00  0.11473708867E+02  0.11473708867E+02  0.00000000000E+00 0. -1.
       -4   -1    0    0    0  501  0.00000000000E+00  0.00000000000E+00 -0.13852898187E+03  0.13852898187E+03  0.00000000000E+00 0.  1.
      -24    2    1    2    0    0  0.00000000000E+00  0.00000000000E+00 -0.12705527300E+03  0.15000269073E+03  0.79735593247E+02 0.  0.
       11    1    3    3    0    0 -0.14700476846E+02 -0.37058524576E+02 -0.63425556040E+02  0.74914881180E+02  0.00000000000E+00 0. -1.
      -12    1    3    3    0    0  0.14700476846E+02  0.37058524576E+02 -0.63629716958E+02  0.75087809552E+02  0.00000000000E+00 0.  1.
</event>
<event>
 5   0  0.2413800E+01  0.7805860E+02  0.7957747E-01  0.1332869E+00
       -2   -1    0    0    0  501  0.00000000000E+00  0.00000000000E+00  0.38798201493E+03  0.38798201493E+03  0.00000000000E+00 0.  1.
        1   -1    0    0  501    0  0.00000000000E+00  0.00000000000E+00 -0.39261773973E+01  0.39261773973E+01  0.00000000000E+00 0. -1.
      -24    2    1    2    0    0  0.00000000000E+00  0.00000000000E+00  0.38405583753E+03  0.39190819233E+03  0.78058598952E+02 0.  0.
       11    1    3    3    0    0  0.44104786681E+01 -0.14501836844E+02  0.11455278844E+02  0.18999447553E+02  0.00000000000E+00 0. -1.
      -12    1    3    3    0    0 -0.44104786681E+01  0.14501836844E+02  0.37260055869E+03  0.37290874477E+03  0.00000000000E+00 0.  1.
</event>
<event>
 5   0  0.2413800E+01  0.7879721E+02  0.7957747E-01  0.1330831E+00
       -4   -1    0    0    0  501  0.00000000000E+00  0.00000000000E+00  0.11469453123E+02  0.11469453123E+02  0.00000000000E+00 0.  1.
        3   -1    0    0  501    0  0.00000000000E+00  0.00000000000E+00 -0.13533777424E+03  0.13533777424E+03  0.00000000000E+00 0. -1.
      -24    2    1    2    0    0  0.00000000000E+00  0.00000000000E+00 -0.12386832111E+03  0.14680722736E+03  0.78797214604E+02 0.  0.
       11    1    3    3    0    0  0.15482798229E+02  0.17621275540E+02 -0.12091019988E+03  0.12316453559E+03  0.00000000000E+00 0. -1.
      -12    1    3    3    0    0 -0.15482798229E+02 -0.17621275540E+02 -0.29581212316E+01  0.23642691765E+02  0.00000000000E+00 0.  1.
</event>
<event>
 4   0  0.2413800E+01  0.4891734E+02  0.7957747E-01  0.1442505E+00
       -2   -1    0    0    0  501  0.00000000000E+00  0.00000000000E+00  0.26775799374E+03  0.26775799374E+03  0.00000000000E+00 0.  1.
        1   -1    0    0  501    0  0.00000000000E+00  0.00000000000E+00 -0.22342061175E+01  0.22342061175E+01  0.00000000000E+00 0. -1.
       11    1    1    2    0    0  0.21328917489E+02 -0.70787075286E+01  0.79479174767E+02  0.82595218041E+02  0.00000000000E+00 0. -1.
      -12    1    1    2    0    0 -0.21328917489E+02  0.70787075286E+01  0.18604461285E+03  0.18739698182E+03  0.00000000000E+00 0.  1.
</event>
<event>
 5   0  0.2413800E+01  0.7196542E+02  0.7957747E-01  0.1350723E+00
       -2   -1    0    0    0  501  0.00000000000E+00  0.00000000000E+00  0.40774126068E+02  0.40774126068E+02  0.00000000000E+00 0.  1.
        1   -1    0    0  501    0  0.00000000000E+00  0.00000000000E+00 -0.31754338470E+02  0.31754338470E+02  0.00000000000E+00 0. -1.
      -24    2    1    2    0    0  0.00000000000E+00  0.00000000000E+00  0.90197875980E+01  0.72528464539E+02  0.71965419474E+02 0.  0.
       11    1    3    3    0    0 -0.11126590318E+02  0.25690090789E+02 -0.18271687369E+02  0.33431068427E+02  0.00000000000E+00 0. -1.
      -12    1    3    3    0    0  0.11126590318E+02 -0.25690090789E+02  0.27291474967E+02  0.39097396112E+02  0.00000000000E+00 0.  1.
</event>
<event>
 5   0  0.2413800E+01  0.8058505E+02  0.7957747E-01  0.1326000E+00
        1   -1    0    0  501    0  0.00000000000E+00  0.00000000000E+00  0.19466049214E+03  0.19466049214E+03  0.00000000000E+00 0. -1.
       -2   -1    0    0    0  501  0.00000000000E+00  0.00000000000E+00 -0.83400975620E+01  0.83400975620E+01  0.00000000000E+00 0.  1.
      -24    2    1    2    0    0  0.00000000000E+00  0.00000000000E+00  0.18632039458E+03  0.20300058971E+03  0.80585048141E+02 0.  0.
       11    1    3    3    0    0  0.38452281753E+02  0.53204660368E+01  0.12036190297E+03  0.12646688506E+03  0.00000000000E+00 0. -1.
      -12    1    3    3    0    0 -0.38452281753E+02 -0.53204660368E+01  0.65958491618E+02  0.76533704649E+02  0.00000000000E+00 0.  1.
</event>
<event>
 5   0  0.2413800E+01  0.8275432E+02  0.7957747E-01  0.1320325E+00
       -2   -1    0    0    0  501  0.00000000000E+00  0.00000000000E+00  0.23151673702E+02  0.23151673702E+02  0.00000000000E+00 0.  1.
        1   -1    0    0  501    0  0.00000000000E+00  0.00000000000E+00 -0.73950128914E+02  0.73950128914E+02  0.00000000000E+00 0. -1.
      -24    2    1    2    0    0  0.00000000000E+00  0.00000000000E+00 -0.50798455212E+02  0.97101802616E+02  0.82754317225E+02 0.  0.
       11    1    3    3    0    0 -0.19149231290E+02 -0.46015623001E+01 -0.68097836171E+02  0.70888523231E+02  0.00000000000E+00 0. -1.
      -12    1    3    3    0    0  0.19149231290E+02  0.46015623001E+01  0.17299380959E+02  0.26213279386E+02  0.00000000000E+00 0.  1.
</event>
<event>
 5   0  0.2413800E+01  0.8199585E+02  0.7957747E-01  0.1322287E+00
       -2   -1    0    0    0  501  0.00000000000E+00  0.00000000000E+00  0.22648508448E+03  0.22648508448E+03  0.00000000000E+00 0.  1.
        1   -1    0    0  501    0  0.00000000000E+00  0.00000000000E+00 -0.74213713843E+01  0.74213713843E+01  0.00000000000E+00 0. -1.
      -24    2    1    2    0    0  0.00000000000E+00  0.00000000000E+00  0.21906371310E+03  0.23390645586E+03  0.81995851722E+02 0.  0.
       11    1    3    3    0    0  0.30323792127E+02 -0.13094993517E+02  0.40251582606E+02  0.52069195562E+02  0.00000000000E+00 0. -1.
      -12    1    3    3    0    0 -0.30323792127E+02  0.13094993517E+02  0.17881213049E+03  0.18183726030E+03  0.00000000000E+00 0.  1.
</event>
<event>
 5   0  0.2413800E+01  0.8024727E+02  0.7957747E-01  0.1326901E+00
       -2   -1    0    0    0  501  0.00000000000E+00  0.00000000000E+00  0.95640394410E+01  0.95640394410E+01  0.00000000000E+00 0.  1.
        1   -1    0    0  501    0  0.00000000000E+00  0.00000000000E+00 -0.16832908977E+03  0.16832908977E+03  0.00000000000E+00 0. -1.
      -24    2    1    2    0    0  0.00000000000E+00  0.00000000000E+00 -0.15876505033E+03  0.17789312921E+03  0.80247269203E+02 0.  0.
       11    1    3    3    0    0 -0.31486313132E+02  0.24334369974E+02 -0.68001708820E+02  0.78789478226E+02  0.00000000000E+00 0. -1.
      -12    1    3    3    0    0  0.31486313132E+02 -0.24334369974E+02 -0.90763341510E+02  0.99103650986E+02  0.00000000000E+00 0.  1.
</event>
<event>
 5   0  0.2413800E+01  0.8111462E+02  0.7957747E-01  0.1324596E+00
        1   -1    0    0  501    0  0.00000000000E+00  0.00000000000E+00  0.60243156437E+02  0.60243156437E+02  0.00000000000E+00 0. -1.
       -2   -1    0    0    0  501  0.00000000000E+00  0.00000000000E+00 -0.27304270769E+02  0.27304270769E+02  0.00000000000E+00 0.  1.
      -24    2    1    2    0    0  0.00000000000E+00  0.00000000000E+00  0.32938885668E+02  0.87547427206E+02  0.81114621501E+02 0.  0.
       11    1    3    3    0    0 -0.18061811177E+02 -0.61554709536E+01  0.55095549513E+02  0.58306418359E+02  0.00000000000E+00 0. -1.
      -12    1    3    3    0    0  0.18061811177E+02  0.61554709536E+01 -0.22156663846E+02  0.29241008847E+02  0.00000000000E+00 0.  1.
</event>
<event>
 5   0  0.2413800E+01  0.7895400E+02  0.7957747E-01  0.1330401E+00
        3   -1    0    0  501    0  0.00000000000E+00  0.00000000000E+00  0.17235385466E+03  0.17235385466E+03  0.00000000000E+00 0. -1.
       -4   -1    0    0    0  501  0.00000000000E+00  0.00000000000E+00 -0.90420580611E+01  0.90420580611E+01  0.00000000000E+00 0.  1.
      -24    2    1    2    0    0  0.00000000000E+00  0.00000000000E+00  0.16331179660E+03  0.18139591272E+03  0.78954000808E+02 0.  0.
       11    1    3    3    0    0  0.33079146132E+02 -0.13386331111E+02  0.12044263532E+03  0.12561788158E+03  0.00000000000E+00 0. -1.
      -12    1    3    3    0    0 -0.33079146132E+02  0.13386331111E+02  0.42869161282E+02  0.55778031146E+02  0.00000000000E+00 0.  1.
</event>
<event>
 5   0  0.2413800E+01  0.8121779E+02  0.7957747E-01  0.1324324E+00
        3   -1    0    0  501    0  0.00000000000E+00  0.00000000000E+00  0.19551373890E+02  0.19551373890E+02  0.00000000000E+00 0. -1.
       -4   -1    0    0    0  501  0.00000000000E+00  0.00000000000E+00 -0.84346105990E+02  0.84346105990E+02  0.00000000000E+00 0.  1.
      -24    2    1    2    0    0  0.00000000000E+00  0.00000000000E+00 -0.64794732100E+02  0.10389747988E+03  0.81217787569E+02 0.  0.
       11    1    3    3    0    0  0.27548977150E+02  0.17731111225E+02 -0.17023053650E+01  0.32806040462E+02  0.00000000000E+00 0. -1.
      -12    1    3    3    0    0 -0.27548977150E+02 -0.17731111225E+02 -0.63092426735E+02  0.71091439418E+02  0.00000000000E+00 0.  1.
</event>
<event>
 5   0  0.2413800E+01  0.7970904E+02  0.7957747E-01  0.1328349E+00
        1   -1    0    0  501    0  0.00000000000E+00  0.00000000000E+00  0.17763136805E+02  0.17763136805E+02  0.00000000000E+00 0. -1.
       -2   -1    0    0    0  501  0.00000000000E+00  0.00000000000E+00 -0.89420175888E+02  0.89420175888E+02  0.00000000000E+00 0.  1.
      -24    2    1    2    0    0  0.00000000000E+00  0.00000000000E+00 -0.71657039083E+02  0.10718331269E+03  0.79709041330E+02 0.  0.
       11    1    3    3    0    0 -0.61111255269E-01 -0.35435656423E+02 -0.11301677105E+02  0.37194319271E+02  0.00000000000E+00 0. -1.
      -12    1    3    3    0    0  0.61111255269E-01  0.35435656423E+02 -0.60355361978E+02  0.69988993422E+02  0.00000000000E+00 0.  1.
</event>
<event>
 5   0  0.2413800E+01  0.8132996E+02  0.7957747E-01  0.1324029E+00
       -4   -1    0    0    0  501  0.00000000000E+00  0.00000000000E+00  0.47874506285E+02  0.47874506285E+02  0.00000000000E+00 0.  1.
        3   -1    0    0  501    0  0.00000000000E+00  0.00000000000E+00 -0.34541149648E+02  0.34541149648E+02  0.00000000000E+00 0. -1.
      -24    2    1    2    0    0  0.00000000000E+00  0.00000000000E+00  0.13333356638E+02  0.82415655933E+02  0.81329957234E+02 0.  0.
       11    1    3    3    0    0 -0.93486015483E+01 -0.32579199612E+02  0.29435261478E+02  0.44891371293E+02  0.00000000000E+00 0. -1.
      -12    1    3    3    0    0  0.93486015483E+01  0.32579199612E+02 -0.16101904840E+02  0.37524284640E+02  0.00000000000E+00 0.  1.
</event>
<event>
 5   0  0.2413800E+01  0.8200891E+02  0.7957747E-01  0.1322253E+00
       -2   -1    0    0    0  501  0.00000000000E+00  0.00000000000E+00  0.36692955326E+02  0.36692955326E+02  0.00000000000E+00 0.  1.
        1   -1    0    0  501    0  0.00000000000E+00  0.00000000000E+00 -0.45822569980E+02  0.45822569980E+02  0.00000000000E+00 0. -1.
      -24    2    1    2    0    0  0.00000000000E+00  0.00000000000E+00 -0.91296146547E+01  0.82515525306E+02  0.82008914472E+02 0.  0.
       11    1    3    3    0    0 -0.30115944719E+02  0.23645672339E+02 -0.19327786031E+02  0.42891155960E+02  0.00000000000E+00 0. -1.
      -12    1    3    3    0    0  0.30115944719E+02 -0.23645672339E+02  0.10198171377E+02  0.39624369347E+02  0.00000000000E+00 0.  1.
</event>
<event>
 5   0  0.2413800E+01  0.8220020E+02  0.7957747E-01  0.1321756E+00
       -2   -1    0    0    0  501  0.00000000000E+00  0.00000000000E+00  0.11920514754E+02  0.11920514754E+02  0.00000000000E+00 0.  1.
        1   -1    0    0  501    0  0.00000000000E+00  0.00000000000E+00 -0.14170681313E+03  0.14170681313E+03  0.00000000000E+00 0. -1.
      -24    2    1    2    0    0  0.00000000000E+00  0.00000000000E+00 -0.12978629838E+03  0.15362732789E+03  0.82200198460E+02 0.  0.
       11    1    3    3    0    0 -0.22433912097E+02 -0.18089760542E+02 -0.11965976612E+03  0.12308119058E+03  0.00000000000E+00 0. -1.
      -12    1    3    3    0    0  0.22433912097E+02  0.18089760542E+02 -0.10126532261E+02  0.30546137302E+02  0.00000000000E+00 0.  1.
</event>
<event>
 5   0  0.2413800E+01  0.8092158E+02  0.7957747E-01  0.1325106E+00
       -2   -1    0    0    0  501  0.00000000000E+00  0.00000000000E+00  0.10080765043E+03  0.10080765043E+03  0.00000000000E+00 0.  1.
        1   -1    0    0  501    0  0.00000000000E+00  0.00000000000E+00 -0.16239596562E+02  0.16239596562E+02  0.00000000000E+00 0. -1.
      -24    2    1    2    0    0  0.00000000000E+00  0.00000000000E+00  0.84568053871E+02  0.11704724700E+03  0.80921581137E+02 0.  0.
       11    1    3    3    0    0 -0.13285484302E+02 -0.34280964257E+02  0.17848938586E+02  0.40868976157E+02  0.00000000000E+00 0. -1.
      -12    1    3    3    0    0  0.13285484302E+02  0.34280964257E+02  0.66719115285E+02  0.76178270839E+02  0.00000000000E+00 0.  1.
</event>
<event>
 5   0  0.2413800E+01  0.8056096E+02  0.7957747E-01  0.1326064E+00
        1   -1    0    0  501    0  0.00000000000E+00  0.00000000000E+00  0.17938777552E+01  0.17938777552E+01  0.00000000000E+00 0. -1.
       -2   -1    0    0    0  501  0.00000000000E+00  0.00000000000E+00 -0.90447477225E+03  0.90447477225E+03  0.00000000000E+00 0.  1.
      -24    2    1    2    0    0  0.00000000000E+00  0.00000000000E+00 -0.90268089450E+03  0.90626865001E+03  0.80560962608E+02 0.  0.
       11    1    3    3    0    0  0.20334005023E+02 -0.18389743573E+02 -0.11936408158E+03  0.12247219440E+03  0.00000000000E+00 0. -1.
      -12    1    3    3    0    0 -0.20334005023E+02  0.18389743573E+02 -0.78331681292E+03  0.78379645561E+03  0.00000000000E+00 0.  1.
</event>
<event>
 5   0  0.2413800E+01  0.5381799E+02  0.7957747E-01  0.1418664E+00
        3   -1    0    0  501    0  0.00000000000E+00  0.00000000000E+00  0.58898316331E+01  0.58898316331E+01  0.00000000000E+00 0. -1.
       -4   -1    0    0    0  501  0.00000000000E+00  0.00000000000E+00 -0.12293968304E+03  0.12293968304E+03  0.00000000000E+00 0.  1.
      -24    2    1    2    0    0  0.00000000000E+00  0.00000000000E+00 -0.11704985141E+03  0.12882951467E+03  0.53817990826E+02 0.  0.
       11    1    3    3    0    0  0.19029358481E+02  0.15500362862E+02 -0.32115298957E+02  0.40419922813E+02  0.00000000000E+00 0. -1.
      -12    1    3    3    0    0 -0.19029358481E+02 -0.15500362862E+02 -0.84934552450E+02  0.88409591861E+02  0.00000000000E+00 0.  1.
</event>
<event>
 5   0  0.2413800E+01  0.8174320E+02  0.7957747E-01  0.1322945E+00
       -2   -1    0    0    0  501  0.00000000000E+00  0.00000000000E+00  0.11838800017E+03  0.11838800017E+03  0.00000000000E+00 0.  1.
        1   -1    0    0  501    0  0.00000000000E+00  0.00000000000E+00 -0.14110277588E+02  0.14110277588E+02  0.00000000000E+00 0. -1.
      -24    2    1    2    0    0  0.00000000000E+00  0.00000000000E+00  0.10427772258E+03  0.13249827776E+03  0.81743196548E+02 0.  0.
       11    1    3    3    0    0  0.42993787414E+01 -0.25963236654E+02  0.14504385651E+01  0.26356746520E+02  0.00000000000E+00 0. -1.
      -12    1    3    3    0    0 -0.42993787414E+01  0.25963236654E+02  0.10282728402E+03  0.10614153124E+03  0.00000000000E+00 0.  1.
</event>
<event>
 5   0  0.2413800E+01  0.8009762E+02  0.7957747E-01  0.1327303E+00
        1   -1    0    0  501    0  0.00000000000E+00  0.00000000000E+00  0.45476526699E+03  0.45476526699E+03  0.00000000000E+00 0. -1.
       -2   -1    0    0    0  501  0.00000000000E+00  0.00000000000E+00 -0.35268900793E+01  0.35268900793E+01  0.00000000000E+00 0.  1.
      -24    2    1    2    0    0  0.00000000000E+00  0.00000000000E+00  0.45123837691E+03  0.45829215707E+03  0.80097618156E+02 0.  0.
       11    1    3    3    0    0  0.14568990290E+02  0.36069857421E+02  0.17115290999E+03  0.17551811499E+03  0.00000000000E+00 0. -1.
      -12    1    3    3    0    0 -0.14568990290E+02 -0.36069857421E+02  0.28008546692E+03  0.28277404208E+03  0.00000000000E+00 0.  1.
</event>
<event>
 5   0  0.2413800E+01  0.8133581E+02  0.7957747E-01  0.1324013E+00
       -2   -1    0    0    0  501  0.00000000000E+00  0.00000000000E+00  0.23822509468E+02  0.23822509468E+02  0.00000000000E+00 0.  1.
        1   -1    0    0  501    0  0.00000000000E+00  0.00000000000E+00 -0.69425038902E+02  0.69425038902E+02  0.00000000000E+00 0. -1.
      -24    2    1    2    0    0  0.00000000000E+00  0.00000000000E+00 -0.45602529434E+02  0.93247548371E+02  0.81335813676E+02 0.  0.
       11    1    3    3    0    0  0.37638572629E+02  0.53636179955E+01 -0.39353420919E+02  0.54718573497E+02  0.00000000000E+00 0. -1.
      -12    1    3    3    0    0 -0.37638572629E+02 -0.53636179955E+01 -0.62491085150E+01  0.38528974873E+02  0.00000000000E+00 0.  1.
</event>
<event>
 5   0  0.2413800E+01  0.8066921E+02  0.7957747E-01  0.1325776E+00
       -2   -1    0    0    0  501  0.00000000000E+00  0.00000000000E+00  0.45893981348E+02  0.45893981348E+02  0.00000000000E+00 0.  1.
        1   -1    0    0  501    0  0.00000000000E+00  0.00000000000E+00 -0.35448667346E+02  0.35448667346E+02  0.00000000000E+00 0. -1.
      -24    2    1    2    0    0  0.00000000000E+00  0.00000000000E+00  0.10445314002E+02  0.81342648695E+02  0.80669212913E+02 0.  0.
       11    1    3    3    0    0  0.39529097702E+02 -0.58239543791E+01 -0.33813082785E+00  0.39957256439E+02  0.00000000000E+00 0. -1.
      -12    1    3    3    0    0 -0.39529097702E+02  0.58239543791E+01  0.10783444830E+02  0.41385392255E+02  0.00000000000E+00 0.  1.
</event>
<event>
 5   0  0.2413800E+01  0.7899055E+02  0.7957747E-01  0.1330301E+00
       -2   -1    0    0    0  501  0.00000000000E+00  0.00000000000E+00  0.27278570895E+02  0.27278570895E+02  0.00000000000E+00 0.  1.
        1   -1    0    0  501    0  0.00000000000E+00  0.00000000000E+00 -0.57183231291E+02  0.57183231291E+02  0.00000000000E+00 0. -1.
      -24    2    1    2    0    0  0.00000000000E+00  0.00000000000E+00 -0.29904660395E+02  0.84461802186E+02  0.78990552062E+02 0.  0.
       11    1    3    3    0    0  0.11462457839E+02  0.37762689188E+02 -0.13272463307E+02  0.41636125140E+02  0.00000000000E+00 0. -1.
      -12    1    3    3    0    0 -0.11462457839E+02 -0.37762689188E+02 -0.16632197088E+02  0.42825677046E+02  0.00000000000E+00 0.  1.
</event>
<event>
 5   0  0.2413800E+01  0.9170423E+02  0.7957747E-01  0.1298837E+00
        3   -1    0    0  501    0  0.00000000000E+00  0.00000000000E+00  0.13837648717E+02  0.13837648717E+02  0.00000000000E+00 0. -1.
       -4   -1    0    0    0  501  0.00000000000E+00  0.00000000000E+00 -0.15193450223E+03  0.15193450223E+03  0.00000000000E+00 0.  1.
      -24    2    1    2    0    0  0.00000000000E+00  0.00000000000E+00 -0.13809685351E+03  0.16577215095E+03  0.91704226070E+02 0.  0.
       11    1    3    3    0    0  0.21524925490E+02 -0.18603308601E+02 -0.40469396863E+01  0.28736444266E+02  0.00000000000E+00 0. -1.
      -12    1    3    3    0    0 -0.21524925490E+02  0.18603308601E+02 -0.13404991383E+03  0.13703570668E+03  0.00000000000E+00 0.  1.
</event>
<event>
 5   0  0.2413800E+01  0.7818939E+02  0.7957747E-01  0.1332506E+00
       -4   -1    0    0    0  501  0.00000000000E+00  0.00000000000E+00  0.36354849392E+02  0.36354849392E+02  0.00000000000E+00 0.  1.
        3   -1    0    0  501    0  0.00000000000E+00  0.00000000000E+00 -0.42041028374E+02  0.42041028374E+02  0.00000000000E+00 0. -1.
      -24    2    1    2    0    0  0.00000000000E+00  0.00000000000E+00 -0.56861789815E+01  0.78395877766E+02  0.78189391987E+02 0.  0.
       11    1    3    3    0    0 -0.21066182247E+02 -0.32075516144E+01 -0.35706512284E+02  0.41581575744E+02  0.00000000000E+00 0. -1.
      -12    1    3    3    0    0  0.21066182247E+02  0.32075516144E+01  0.30020333302E+02  0.36814302023E+02  0.00000000000E+00 0.  1.
</event>
<event>
 5   0  0.2413800E+01  0.8154848E+02  0.7957747E-01  0.1323455E+00
       -4   -1    0    0    0  501  0.00000000000E+00  0.00000000000E+00  0.18416781502E+03  0.18416781502E+03  0.00000000000E+00 0.  1.
        3   -1    0    0  501    0  0.00000000000E+00  0.00000000000E+00 -0.90273029368E+01  0.90273029368E+01  0.00000000000E+00 0. -1.
      -24    2    1    2    0    0  0.00000000000E+00  0.00000000000E+00  0.17514051208E+03  0.19319511796E+03  0.81548480241E+02 0.  0.
       11    1    3    3    0    0 -0.30089772237E+02  0.93448878295E+01  0.26256422930E+02  0.41013669269E+02  0.00000000000E+00 0. -1.
      -12    1    3    3    0    0  0.30089772237E+02 -0.93448878295E+01  0.14888408915E+03  0.15218144869E+03  0.00000000000E+00 0.  1.
</event>
<event>
 5   0  0.2413800E+01  0.7943083E+02  0.7957747E-01  0.1329102E+00
        3   -1    0    0  501    0  0.00000000000E+00  0.00000000000E+00  0.35015852368E+02  0.35015852368E+02  0.00000000000E+00 0. -1.
       -4   -1    0    0    0  501  0.00000000000E+00  0.00000000000E+00 -0.45045714244E+02  0.45045714244E+02  0.00000000000E+00 0.  1.
      -24    2    1    2    0    0  0.00000000000E+00  0.00000000000E+00 -0.10029861876E+02  0.80061566612E+02  0.79430827259E+02 0.  0.
       11    1    3    3    0    0  0.13044186866E+02 -0.25811381397E+01  0.32705505504E+02  0.35305285375E+02  0.00000000000E+00 0. -1.
      -12    1    3    3    0    0 -0.13044186866E+02  0.25811381397E+01 -0.42735367380E+02  0.44756281237E+02  0.00000000000E+00 0.  1.
</event>
<event>
 5   0  0.2413800E+01  0.7996126E+02  0.7957747E-01  0.1327669E+00
        3   -1    0    0  501    0  0.00000000000E+00  0.00000000000E+00  0.73259900066E+01  0.73259900066E+01  0.00000000000E+00 0. -1.
       -4   -1    0    0    0  501  0.00000000000E+00  0.00000000000E+00 -0.21818907222E+03  0.21818907222E+03  0.00000000000E+00 0.  1.
      -24    2    1    2    0    0  0.00000000000E+00  0.00000000000E+00 -0.21086308222E+03  0.22551506223E+03  0.79961264689E+02 0.  0.
       11    1    3    3    0    0  0.25466964318E+02  0.20850627176E+02 -0.41420208891E+02  0.52905090774E+02  0.00000000000E+00 0. -1.
      -12    1    3    3    0    0 -0.25466964318E+02 -0.20850627176E+02 -0.16944287333E+03  0.17260997146E+03  0.00000000000E+00 0.  1.
</event>
<event>
 5   0  0.2413800E+01  0.7968422E+02  0.7957747E-01  0.1328416E+00
        1   -1    0    0  501    0  0.00000000000E+00  0.00000000000E+00  0.50447498184E+02  0.50447498184E+02  0.00000000000E+00 0. -1.
       -2   -1    0    0    0  501  0.00000000000E+00  0.00000000000E+00 -0.31466255245E+02  0.31466255245E+02  0.00000000000E+00 0.  1.
      -24    2    1    2    0    0  0.00000000000E+00  0.00000000000E+00  0.18981242939E+02  0.81913753429E+02  0.79684223140E+02 0.  0.
       11    1    3    3    0    0 -0.16345514212E+02  0.10615390436E+02  0.45212453076E+02  0.49234421517E+02  0.00000000000E+00 0. -1.
      -12    1    3    3    0    0  0.16345514212E+02 -0.10615390436E+02 -0.26231210137E+02  0.32679331912E+02  0.00000000000E+00 0.  1.
</event>
<event>
 5   0  0.2413800E+01  0.7322046E+02  0.7957747E-01  0.1346885E+00
        1   -1    0    0  501    0  0.00000000000E+00  0.00000000000E+00  0.27571135227E+03  0.27571135227E+03  0.00000000000E+00 0. -1.
       -2   -1    0    0    0  501  0.00000000000E+00  0.00000000000E+00 -0.48612762130E+01  0.48612762130E+01  0.00000000000E+00 0.  1.
      -24    2    1    2    0    0  0.00000000000E+00  0.00000000000E+00  0.27085007606E+03  0.28057262849E+03  0.73220462671E+02 0.  0.
       11    1    3    3    0    0  0.30701695152E+02 -0.18714511125E+02  0.10902056798E+03  0.11479682598E+03  0.00000000000E+00 0. -1.
      -12    1    3    3    0    0 -0.30701695152E+02  0.18714511125E+02  0.16182950808E+03  0.16577580250E+03  0.00000000000E+00 0.  1.
</event>
<event>
 5   0  0.2413800E+01  0.8198450E+02  0.7957747E-01  0.1322316E+00
       -4   -1    0    0    0  501  0.00000000000E+00  0.00000000000E+00  0.65680175558E+02  0.65680175558E+02  0.00000000000E+00 0.  1.
        3   -1    0    0  501    0  0.00000000000E+00  0.00000000000E+00 -0.25584046949E+02  0.25584046949E+02  0.00000000000E+00 0. -1.
      -24    2    1    2    0    0  0.00000000000E+00  0.00000000000E+00  0.40096128609E+02  0.91264222508E+02  0.81984503295E+02 0.  0.
       11    1    3    3    0    0 -0.29192802941E+02  0.20263554423E+02 -0.26984238229E+01  0.35638642967E+02  0.00000000000E+00 0. -1.
      -12    1    3    3    0    0  0.29192802941E+02 -0.20263554423E+02  0.42794552432E+02  0.55625579541E+02  0.00000000000E+00 0.  1.
</event>
<event>
 5   0  0.2413800E+01  0.8131229E+02  0.7957747E-01  0.1324075E+00
        1   -1    0    0  501    0  0.00000000000E+00  0.00000000000E+00  0.34701082206E+02  0.34701082206E+02  0.00000000000E+00 0. -1.
       -2   -1    0    0    0  501  0.00000000000E+00  0.00000000000E+00 -0.47633160381E+02  0.47633160381E+02  0.00000000000E+00 0.  1.
      -24    2    1    2    0    0  0.00000000000E+00  0.00000000000E+00 -0.12932078175E+02  0.82334242587E+02  0.81312292161E+02 0.  0.
       11    1    3    3    0    0 -0.24083756941E+01  0.22485387695E+02  0.27745122385E+02  0.35793641187E+02  0.00000000000E+00 0. -1.
      -12    1    3    3    0    0  0.24083756941E+01 -0.22485387695E+02 -0.40677200560E+02  0.46540601400E+02  0.00000000000E+00 0.  1.
</event>
<event>
 5   0  0.2413800E+01  0.8025109E+02  0.7957747E-01  0.1326891E+00
        1   -1    0    0  501    0  0.00000000000E+00  0.00000000000E+00  0.24216372402E+03  0.24216372402E+03  0.00000000000E+00 0. -1.
       -2   -1    0    0    0  501  0.00000000000E+00  0.00000000000E+00 -0.66486398808E+01  0.66486398808E+01  0.00000000000E+00 0.  1.
      -24    2    1    2    0    0  0.00000000000E+00  0.00000000000E+00  0.23551508414E+03  0.24881236390E+03  0.80251090789E+02 0.  0.
       11    1    3    3    0    0  0.30468953058E+02  0.26093773722E+02  0.12056041013E+03  0.12705925633E+03  0.00000000000E+00 0. -1.
      -12    1    3    3    0    0 -0.30468953058E+02 -0.26093773722E+02  0.11495467401E+03  0.12175310757E+03  0.00000000000E+00 0.  1.
</event>
<event>
 5   0  0.2413800E+01  0.8040848E+02  0.7957747E-01  0.1326470E+00
        1   -1    0    0  501    0  0.00000000000E+00  0.00000000000E+00  0.11738798199E+02  0.11738798199E+02  0.00000000000E+00 0. -1.
       -2   -1    0    0    0  501  0.00000000000E+00  0.00000000000E+00 -0.13769561223E+03  0.13769561223E+03  0.00000000000E+00 0.  1.
      -24    2    1    2    0    0  0.00000000000E+00  0.00000000000E+00 -0.12595681403E+03  0.14943441043E+03  0.80408482261E+02 0.  0.
       11    1    3    3    0    0 -0.23758040728E+02  0.16244593138E+02 -0.10807840393E+02  0.30743141014E+02  0.00000000000E+00 0. -1.
      -12    1    3    3    0    0  0.23758040728E+02 -0.16244593138E+02 -0.11514897364E+03  0.11869126942E+03  0.00000000000E+00 0.  1.
</event>
<event>
 5   0  0.2413800E+01  0.7854951E+02  0.7957747E-01  0.1331511E+00
        1   -1    0    0  501    0  0.00000000000E+00  0.00000000000E+00  0.51232797812E+01  0.51232797812E+01  0.00000000000E+00 0. -1.
       -2   -1    0    0    0  501  0.00000000000E+00  0.00000000000E+00 -0.30107788236E+03  0.30107788236E+03  0.00000000000E+00 0.  1.
      -24    2    1    2    0    0  0.00000000000E+00  0.00000000000E+00 -0.29595460258E+03  0.30620116214E+03  0.78549506104E+02 0.  0.
       11    1    3    3    0    0 -0.15033498452E+02 -0.43087139462E+01 -0.75376085674E+01  0.17360490618E+02  0.00000000000E+00 0. -1.
      -12    1    3    3    0    0  0.15033498452E+02  0.43087139462E+01 -0.28841699401E+03  0.28884067153E+03  0.00000000000E+00 0.  1.
</event>
<event>
 5   0  0.2413800E+01  0.8168629E+02  0.7957747E-01  0.1323094E+00
        1   -1    0    0  501    0  0.00000000000E+00  0.00000000000E+00  0.42048086955E+03  0.42048086955E+03  0.00000000000E+00 0. -1.
       -2   -1    0    0    0  501  0.00000000000E+00  0.00000000000E+00 -0.39672729102E+01  0.39672729102E+01  0.00000000000E+00 0.  1.
      -24    2    1    2    0    0  0.00000000000E+00  0.00000000000E+00  0.41651359664E+03  0.42444814246E+03  0.81686286806E+02 0.  0.
       11    1    3    3    0    0 -0.70384721748E+01 -0.32109575291E+02  0.82301792435E+02  0.88623642184E+02  0.00000000000E+00 0. -1.
      -12    1    3    3    0    0  0.70384721748E+01  0.32109575291E+02  0.33421180421E+03  0.33582450028E+03  0.00000000000E+00 0.  1.
</event>
<event>
 5   0  0.2413800E+01  0.8253346E+02  0.7957747E-01  0.1320894E+00
        3   -1    0    0  501    0  0.00000000000E+00  0.00000000000E+00  0.79112889224E+01  0.79112889224E+01  0.00000000000E+00 0. -1.
       -4   -1    0    0    0  501  0.00000000000E+00  0.00000000000E+00 -0.21525479700E+03  0.21525479700E+03  0.00000000000E+00 0.  1.
      -24    2    1    2    0    0  0.00000000000E+00  0.00000000000E+00 -0.20734350808E+03  0.22316608592E+03  0.82533457241E+02 0.  0.
       11    1    3    3    0    0  0.38785455422E+02 -0.17901923540E+01 -0.65871915787E+02  0.76463230578E+02  0.00000000000E+00 0. -1.
      -12    1    3    3    0    0 -0.38785455422E+02  0.17901923540E+01 -0.14147159229E+03  0.14670285535E+03  0.00000000000E+00 0.  1.
</event>
<event>
 5   0  0.2413800E+01  0.7964736E+02  0.7957747E-01  0.1328516E+00
        1   -1    0    0  501    0  0.00000000000E+00  0.00000000000E+00  0.44656367740E+02  0.44656367740E+02  0.00000000000E+00 0. -1.
       -2   -1    0    0    0  501  0.00000000000E+00  0.00000000000E+00 -0.35513985364E+02  0.35513985364E+02  0.00000000000E+00 0.  1.
      -24    2    1    2    0    0  0.00000000000E+00  0.00000000000E+00  0.91423823760E+01  0.80170353103E+02  0.79647362550E+02 0.  0.
       11    1    3    3    0    0 -0.18336998840E+02  0.92158028965E+01  0.38923709361E+02  0.44002632875E+02  0.00000000000E+00 0. -1.
      -12    1    3    3    0    0  0.18336998840E+02 -0.92158028965E+01 -0.29781326985E+02  0.36167720228E+02  0.00000000000E+00 0.  1.
</event>
<event>
 5   0  0.2413800E+01  0.8054938E+02  0.7957747E-01  0.1326095E+00
       -2   -1    0    0    0  501  0.00000000000E+00  0.00000000000E+00  0.31085746184E+01  0.31085746184E+01  0.00000000000E+00 0.  1.
        1   -1    0    0  501    0  0.00000000000E+00  0.00000000000E+00 -0.52179880177E+03  0.52179880177E+03  0.00000000000E+00 0. -1.
      -24    2    1    2    0    0  0.00000000000E+00  0.00000000000E+00 -0.51869022715E+03  0.52490737639E+03  0.80549376437E+02 0.  0.
       11    1    3    3    0    0  0.49614842098E+01 -0.38560761889E+02 -0.19084280236E+03  0.19476273744E+03  0.00000000000E+00 0. -1.
      -12    1    3    3    0    0 -0.49614842098E+01  0.38560761889E+02 -0.32784742480E+03  0.33014463895E+03  0.00000000000E+00 0.  1.
</event>
<event>
 5   0  0.2413800E+01  0.6360971E+02  0.7957747E-01  0.1378769E+00
        1   -1    0    0  501    0  0.00000000000E+00  0.00000000000E+00  0.10776391716E+03  0.10776391716E+03  0.00000000000E+00 0. -1.
       -2   -1    0    0    0  501  0.00000000000E+00  0.00000000000E+00 -0.93867110101E+01  0.93867110101E+01  0.00000000000E+00 0.  1.
      -24    2    1    2    0    0  0.00000000000E+00  0.00000000000E+00  0.98377206147E+02  0.11715062817E+03  0.63609708305E+02 0.  0.
       11    1    3    3    0    0  0.16051698891E+01  0.18852496969E+02  0.96271423016E+02  0.98113098523E+02  0.00000000000E+00 0. -1.
      -12    1    3    3    0    0 -0.16051698891E+01 -0.18852496969E+02  0.21057831310E+01  0.19037529644E+02  0.00000000000E+00 0.  1.
</event>
<event>
 5   0  0.2413800E+01  0.7942363E+02  0.7957747E-01  0.1329122E+00
       -4   -1    0    0    0  501  0.00000000000E+00  0.00000000000E+00  0.75289144146E+01  0.75289144146E+01  0.00000000000E+00 0.  1.
        3   -1    0    0  501    0  0.00000000000E+00  0.00000000000E+00 -0.20946289122E+03  0.20946289122E+03  0.00000000000E+00 0. -1.
      -24    2    1    2    0    0  0.00000000000E+00  0.00000000000E+00 -0.20193397681E+03  0.21699180564E+03  0.79423628249E+02 0.  0.
       11    1    3    3    0    0 -0.38711011702E+02  0.40784638149E+01 -0.79480270217E+02  0.88500223999E+02  0.00000000000E+00 0. -1.
      -12    1    3    3    0    0  0.38711011702E+02 -0.40784638149E+01 -0.12245370659E+03  0.12849158164E+03  0.00000000000E+00 0.  1.
</event>
<event>
 5   0  0.2413800E+01  0.8012279E+02  0.7957747E-01  0.1327235E+00
       -2   -1    0    0    0  501  0.00000000000E+00  0.00000000000E+00  0.12721283884E+03  0.12721283884E+03  0.00000000000E+00 0.  1.
        1   -1    0    0  501    0  0.00000000000E+00  0.00000000000E+00 -0.12615987274E+02  0.12615987274E+02  0.00000000000E+00 0. -1.
      -24    2    1    2    0    0  0.00000000000E+00  0.00000000000E+00  0.11459685156E+03  0.13982882611E+03  0.80122794656E+02 0.  0.
       11    1    3    3    0    0  0.11630170917E+02  0.19455523618E+02 -0.34905325759E+00  0.22669365077E+02  0.00000000000E+00 0. -1.
      -12    1    3    3    0    0 -0.11630170917E+02 -0.19455523618E+02  0.11494590482E+03  0.11715946103E+03  0.00000000000E+00 0.  1.
</event>
<event>
 5   0  0.2413800E+01  0.8123062E+02  0.7957747E-01  0.1324290E+00
       -4   -1    0    0    0  501  0.00000000000E+00  0.00000000000E+00  0.10165619968E+03  0.10165619968E+03  0.00000000000E+00 0.  1.
        3   -1    0    0  501    0  0.00000000000E+00  0.00000000000E+00 -0.16227276919E+02  0.16227276919E+02  0.00000000000E+00 0. -1.
      -24    2    1    2    0    0  0.00000000000E+00  0.00000000000E+00  0.85428922766E+02  0.11788347660E+03  0.81230617449E+02 0.  0.
       11    1    3    3    0    0 -0.29844048470E+02  0.24566334913E+02  0.60807119159E+02  0.72053298194E+02  0.00000000000E+00 0. -1.
      -12    1    3    3    0    0  0.29844048470E+02 -0.24566334913E+02  0.24621803607E+02  0.45830178409E+02  0.00000000000E+00 0.  1.
</event>
<event>
 5   0  0.2413800E+01  0.8184015E+02  0.7957747E-01  0.1322692E+00
        1   -1    0    0  501    0  0.00000000000E+00  0.00000000000E+00  0.29163947773E+03  0.29163947773E+03  0.00000000000E+00 0. -1.
       -2   -1    0    0    0  501  0.00000000000E+00  0.00000000000E+00 -0.57415149110E+01  0.57415149110E+01  0.00000000000E+00 0.  1.
      -24    2    1    2    0    0  0.00000000000E+00  0.00000000000E+00  0.28589796282E+03  0.29738099264E+03  0.81840146872E+02 0.  0.
       11    1    3    3    0    0  0.39349374848E+02 -0.11159194433E+02  0.13842291300E+03  0.14433919691E+03  0.00000000000E+00 0. -1.
      -12    1    3    3    0    0 -0.39349374848E+02  0.11159194433E+02  0.14747504982E+03  0.15304179573E+03  0.00000000000E+00 0.  1.
</event>
<event>
 5   0  0.2413800E+01  0.8044357E+02  0.7957747E-01  0.1326377E+00
       -2   -1    0    0    0  501  0.00000000000E+00  0.00000000000E+00  0.14579419823E+02  0.14579419823E+02  0.00000000000E+00 0.  1.
        1   -1    0    0  501    0  0.00000000000E+00  0.00000000000E+00 -0.11096407647E+03  0.11096407647E+03  0.00000000000E+00 0. -1.
      -24    2    1    2    0    0  0.00000000000E+00  0.00000000000E+00 -0.96384656651E+02  0.12554349630E+03  0.80443566708E+02 0.  0.
       11    1    3    3    0    0 -0.26543311895E+02  0.43637467917E+01 -0.94860497053E+02  0.98600728159E+02  0.00000000000E+00 0. -1.
      -12    1    3    3    0    0  0.26543311895E+02 -0.43637467917E+01 -0.15241595979E+01  0.26942768137E+02  0.00000000000E+00 0.  1.
</event>
<event>
 5   0  0.2413800E+01  0.8017632E+02  0.7957747E-01  0.1327092E+00
       -2   -1    0    0    0  501  0.00000000000E+00  0.00000000000E+00  0.12846163855E+02  0.12846163855E+02  0.00000000000E+00 0.  1.
        1   -1    0    0  501    0  0.00000000000E+00  0.00000000000E+00 -0.12510043317E+03  0.12510043317E+03  0.00000000000E+00 0. -1.
      -24    2    1    2    0    0  0.00000000000E+00  0.00000000000E+00 -0.11225426931E+03  0.13794659702E+03  0.80176322260E+02 0.  0.
       11    1    3    3    0    0 -0.15487197334E+02 -0.22726640843E+02 -0.10630993690E+03  0.10980963604E+03  0.00000000000E+00 0. -1.
      -12    1    3    3    0    0  0.15487197334E+02  0.22726640843E+02 -0.59443324175E+01  0.28136960979E+02  0.00000000000E+00 0.  1.
</event>
<event>
 5   0  0.2413800E+01  0.7809111E+02  0.7957747E-01  0.1332779E+00
       -2   -1    0    0    0  501  0.00000000000E+00  0.00000000000E+00  0.93065777081E+01  0.93065777081E+01  0.00000000000E+00 0.  1.
        1   -1    0    0  501    0  0.00000000000E+00  0.00000000000E+00 -0.16381482211E+03  0.16381482211E+03  0.00000000000E+00 0. -1.
      -24    2    1    2    0    0  0.00000000000E+00  0.00000000000E+00 -0.15450824440E+03  0.17312139981E+03  0.78091110164E+02 0.  0.
       11    1    3    3    0    0  0.18704300552E+02  0.28601579740E+02 -0.11912121435E+03  0.12392644968E+03  0.00000000000E+00 0. -1.
      -12    1    3    3    0    0 -0.18704300552E+02 -0.28601579740E+02 -0.35387030046E+02  0.49194950130E+02  0.00000000000E+00 0.  1.
</event>
<event>
 5   0  0.2413800E+01  0.7768834E+02  0.7957747E-01  0.1333900E+00
       -2   -1    0    0    0  501  0.00000000000E+00  0.00000000000E+00  0.19436279783E+02  0.19436279783E+02  0.00000000000E+00 0.  1.
        1   -1    0    0  501    0  0.00000000000E+00  0.00000000000E+00 -0.77631594094E+02  0.77631594094E+02  0.00000000000E+00 0. -1.
      -24    2    1    2    0    0  0.00000000000E+00  0.00000000000E+00 -0.58195314311E+02  0.97067873877E+02  0.77688335876E+02 0.  0.
       11    1    3    3    0    0 -0.82672820968E+01 -0.36716901378E+02 -0.17087918642E+02  0.41333712192E+02  0.00000000000E+00 0. -1.
      -12    1    3    3    0    0  0.82672820968E+01  0.36716901378E+02 -0.41107395669E+02  0.55734161685E+02  0.00000000000E+00 0.  1.
</event>
<event>
 5   0  0.2413800E+01  0.7968203E+02  0.7957747E-01  0.1328422E+00
       -4   -1    0    0    0  501  0.00000000000E+00  0.00000000000E+00  0.49808496592E+02  0.49808496592E+02  0.00000000000E+00 0.  1.
        3   -1    0    0  501    0  0.00000000000E+00  0.00000000000E+00 -0.31868189627E+02  0.31868189627E+02  0.00000000000E+00 0. -1.
      -24    2    1    2    0    0  0.00000000000E+00  0.00000000000E+00  0.17940306965E+02  0.81676686220E+02  0.79682033469E+02 0.  0.
       11    1    3    3    0    0  0.13997942191E+02 -0.48925759205E+01 -0.28934258599E+02  0.32512628398E+02  0.00000000000E+00 0. -1.
      -12    1    3    3    0    0 -0.13997942191E+02  0.48925759205E+01  0.46874565563E+02  0.49164057821E+02  0.00000000000E+00 0.  1.
</event>
<event>
 5   0  0.2413800E+01  0.8060408E+02  0.7957747E-01  0.1325949E+00
       -2   -1    0    0    0  501  0.00000000000E+00  0.00000000000E+00  0.24441220968E+02  0.24441220968E+02  0.00000000000E+00 0.  1.
        1   -1    0    0  501    0  0.00000000000E+00  0.00000000000E+00 -0.66455537320E+02  0.66455537320E+02  0.00000000000E+00 0. -1.
      -24    2    1    2    0    0  0.00000000000E+00  0.00000000000E+00 -0.42014316352E+02  0.90896758287E+02  0.80604081092E+02 0.  0.
       11    1    3    3    0    0 -0.35747708419E+02  0.31547435858E+01 -0.41690540368E+02  0.55008655869E+02  0.00000000000E+00 0. -1.
      -12    1    3    3    0    0  0.35747708419E+02 -0.31547435858E+01 -0.32377598383E+00  0.35888102418E+02  0.00000000000E+00 0.  1.
</event>
<event>
 5   0  0.2413800E+01  0.8063317E+02  0.7957747E-01  0.1325872E+00
       -2   -1    0    0    0  501  0.00000000000E+00  0.00000000000E+00  0.37910544962E+02  0.37910544962E+02  0.00000000000E+00 0.  1.
        1   -1    0    0  501    0  0.00000000000E+00  0.00000000000E+00 -0.42875330736E+02  0.42875330736E+02  0.00000000000E+00 0. -1.
      -24    2    1    2    0    0  0.00000000000E+00  0.00000000000E+00 -0.49647857740E+01  0.80785875698E+02  0.80633173164E+02 0.  0.
       11    1    3    3    0    0 -0.39279497529E+02 -0.70155901322E+01 -0.82665160944E+01  0.40748407569E+02  0.00000000000E+00 0. -1.
      -12    1    3    3    0    0  0.39279497529E+02  0.70155901322E+01  0.33017303204E+01  0.40037468129E+02  0.00000000000E+00 0.  1.
</event>
<event>
 5   0  0.2413800E+01  0.8186552E+02  0.7957747E-01  0.1322626E+00
       -2   -1    0    0    0  501  0.00000000000E+00  0.00000000000E+00  0.12271027181E+02  0.12271027181E+02  0.00000000000E+00 0.  1.
        1   -1    0    0  501    0  0.00000000000E+00  0.00000000000E+00 -0.13654037754E+03  0.13654037754E+03  0.00000000000E+00 0. -1.
      -24    2    1    2    0    0  0.00000000000E+00  0.00000000000E+00 -0.12426935036E+03  0.14881140472E+03  0.81865516162E+02 0.  0.
       11    1    3    3    0    0 -0.20952429772E+01  0.40168313626E+02 -0.48338024258E+02  0.62884402294E+02  0.00000000000E+00 0. -1.
      -12    1    3    3    0    0  0.20952429772E+01 -0.40168313626E+02 -0.75931326101E+02  0.85927002428E+02  0.00000000000E+00 0.  1.
</event>
<event>
 5   0  0.2413800E+01  0.7964035E+02  0.7957747E-01  0.1328534E+00
       -2   -1    0    0    0  501  0.00000000000E+00  0.00000000000E+00  0.43990397990E+01  0.43990397990E+01  0.00000000000E+00 0.  1.
        1   -1    0    0  501    0  0.00000000000E+00  0.00000000000E+00 -0.36045283395E+03  0.36045283395E+03  0.00000000000E+00 0. -1.
      -24    2    1    2    0    0  0.00000000000E+00  0.00000000000E+00 -0.35605379415E+03  0.36485187375E+03  0.79640350633E+02 0.  0.
       11    1    3    3    0    0 -0.36486622253E+02 -0.15892507358E+02 -0.18417493444E+03  0.18842571977E+03  0.00000000000E+00 0. -1.
      -12    1    3    3    0    0  0.36486622253E+02  0.15892507358E+02 -0.17187885971E+03  0.17642615398E+03  0.00000000000E+00 0.  1.
</event>
</LesHouchesEvents>
