<LesHouchesEvents version="1.0">
<header>
<!--
#*********************************************************************
#                                                                    *
#                            MadGraph 5                              *
#                                                                    *
#                           Going Beyond                             *
#                                                                    *
#                   http://madgraph.hep.uiuc.edu                     *
#                   http://madgraph.phys.ucl.ac.be                   *
#                   http://madgraph.roma2.infn.it                    *
#                                                                    *
#                         The MadGraph team                          *
#                                                                    *
#....................................................................*
#                                                                    *
# This file contains all the information necessary to reproduce      *
# the events generated:                                              *
#                                                                    *
# 1. software version                                                *
# 2. proc_card          : code generation info including model       *
# 3. param_card         : model primary parameters in the LH format  *
# 4. run_card           : running parameters (collider and cuts)     *
# 5. pythia_card        : present only if pythia has been run        *
# 6. pgs_card           : present only if pgs has been run           *
# 7. delphes_cards      : present only if delphes has been run       *
#                                                                    *
#                                                                    *
#*********************************************************************
-->
<MGVersion>
# MG    version    : 5.1.3.20
</MGVersion>
<MG5ProcCard>
#************************************************************
#*                        MadGraph 5                        *
#*                                                          *
#*                *                       *                 *
#*                  *        * *        *                   *
#*                    * * * * 5 * * * *                     *
#*                  *        * *        *                   *
#*                *                       *                 *
#*                                                          *
#*                                                          *
#*         VERSION 1.3.20                2011-10-09         *
#*                                                          *
#*    The MadGraph Development Team - Please visit us at    *
#*    https://server06.fynu.ucl.ac.be/projects/madgraph     *
#*                                                          *
#************************************************************
#*                                                          *
#*               Command File for MadGraph 5                *
#*                                                          *
#*     run as ./bin/mg5  filename                           *
#*                                                          *
#************************************************************
import model sm
generate p  p > e- ve~
output ex_01
</MG5ProcCard>
<MGProcCard>
#*********************************************************************
#                        MadGraph/MadEvent                           *
#                   http://madgraph.hep.uiuc.edu                     *
#                                                                    *
#                          proc_card.dat                             *
#*********************************************************************
#                                                                    *
#            This Files is generated by MADGRAPH 5                   *
#                                                                    *
# WARNING: This Files is generated for MADEVENT (compatibility issue)*
#          This files is NOT a valid MG4 proc_card.dat               *
#          Running this in MG4 will NEVER reproduce the result of MG5*
#                                                                    *
#*********************************************************************
#*********************************************************************
# Process(es) requested : mg2 input                                  *
#*********************************************************************
# Begin PROCESS # This is TAG. Do not modify this line
p p > e- ve~           #Process
# Be carefull the coupling are here in MG5 convention
end_coup           # End the couplings input
done               # this tells MG there are no more procs
# End PROCESS  # This is TAG. Do not modify this line
#*********************************************************************
# Model information                                                  *
#*********************************************************************
# Begin MODEL  # This is TAG. Do not modify this line
sm
# End   MODEL  # This is TAG. Do not modify this line
#*********************************************************************
# Start multiparticle definitions                                    *
#*********************************************************************
# Begin MULTIPARTICLES # This is TAG. Do not modify this line
# End  MULTIPARTICLES # This is TAG. Do not modify this line
</MGProcCard>
<slha>
######################################################################
## PARAM_CARD AUTOMATICALY GENERATED BY MG5 FOLLOWING UFO MODEL   ####
######################################################################
###################################
## INFORMATION FOR MASS
###################################
Block mass 
    5 4.700000e+00 # MB 
    6 1.730000e+02 # MT 
   15 1.777000e+00 # MTA 
   23 9.118800e+01 # MZ 
   25 1.200000e+02 # MH 
##  Not dependent paramater.
## Those values should be edited following the 
## analytical expression. MG5 ignore those values 
## but they are important for interfacing the output of MG5
## to external program such as Pythia.
  12 0.000000 # ve : 0.0 
  14 0.000000 # vm : 0.0 
  16 0.000000 # vt : 0.0 
  2 0.000000 # u : 0.0 
  4 0.000000 # c : 0.0 
  1 0.000000 # d : 0.0 
  3 0.000000 # s : 0.0 
  22 0.000000 # a : 0.0 
  24 80.419002 # w+ : cmath.sqrt(MZ__exp__2/2. + cmath.sqrt(MZ__exp__4/4. - (aEW*cmath.pi*MZ__exp__2)/(Gf*sqrt__2))) 
  21 0.000000 # g : 0.0 
  11 0.000000 # e- : 0.0 
  13 0.000000 # mu- : 0.0 
###################################
## INFORMATION FOR SMINPUTS
###################################
Block sminputs 
    1 1.325070e+02 # aEWM1 
    2 1.166390e-05 # Gf 
    3 1.180000e-01 # aS 
###################################
## INFORMATION FOR YUKAWA
###################################
Block yukawa 
    5 4.200000e+00 # ymb 
    6 1.645000e+02 # ymt 
   15 1.777000e+00 # ymtau 
###################################
## INFORMATION FOR DECAY
###################################
DECAY   6 1.491500e+00 # WT 
DECAY  23 2.441404e+00 # WZ 
DECAY  24 2.047600e+00 # WW 
DECAY  25 5.753088e-03 # WH 
##  Not dependent paramater.
## Those values should be edited following the 
## analytical expression. MG5 ignore those values 
## but they are important for interfacing the output of MG5
## to external program such as Pythia.
DECAY  12 0.000000 # ve : 0.0 
DECAY  14 0.000000 # vm : 0.0 
DECAY  16 0.000000 # vt : 0.0 
DECAY  2 0.000000 # u : 0.0 
DECAY  4 0.000000 # c : 0.0 
DECAY  1 0.000000 # d : 0.0 
DECAY  3 0.000000 # s : 0.0 
DECAY  5 0.000000 # b : 0.0 
DECAY  22 0.000000 # a : 0.0 
DECAY  21 0.000000 # g : 0.0 
DECAY  11 0.000000 # e- : 0.0 
DECAY  13 0.000000 # mu- : 0.0 
DECAY  15 0.000000 # ta- : 0.0 
</slha>
<MGRunCard>
#*********************************************************************
#                       MadGraph/MadEvent                            *
#                  http://madgraph.hep.uiuc.edu                      *
#                                                                    *
#                        run_card.dat                                *
#                                                                    *
#  This file is used to set the parameters of the run.               *
#                                                                    *
#  Some notation/conventions:                                        *
#                                                                    *
#   Lines starting with a '# ' are info or comments                  *
#                                                                    *
#   mind the format:   value    = variable     ! comment             *
#*********************************************************************
#
#*******************
# Running parameters
#*******************
#
#*********************************************************************
# Tag name for the run (one word)                                    *
#*********************************************************************
  'fermi'     = run_tag ! name of the run
#*********************************************************************
# Run to generate the grid pack                                      *
#*********************************************************************
  .false.     = gridpack  !True = setting up the grid pack
#*********************************************************************
# Number of events and rnd seed                                      *
# Warning: Do not generate more than 100K event in a single run      *
#*********************************************************************
   1000       = nevents ! Number of unweighted events requested
      28 = iseed   ! rnd seed (0=assigned automatically=default))
#*********************************************************************
# Collider type and energy                                           *
#*********************************************************************
        1     = lpp1  ! beam 1 type (0=NO PDF)
        1     = lpp2  ! beam 2 type (0=NO PDF)
      4000     = ebeam1  ! beam 1 energy in GeV
      4000     = ebeam2  ! beam 2 energy in GeV
#*********************************************************************
# Beam polarization from -100 (left-handed) to 100 (right-handed)    *
#*********************************************************************
        0     = polbeam1 ! beam polarization for beam 1
        0     = polbeam2 ! beam polarization for beam 2
#*********************************************************************
# PDF CHOICE: this automatically fixes also alpha_s and its evol.    *
#*********************************************************************
 'cteq6l1'    = pdlabel     ! PDF set
#*********************************************************************
# Renormalization and factorization scales                           *
#*********************************************************************
 F        = fixed_ren_scale  ! if .true. use fixed ren scale
 F        = fixed_fac_scale  ! if .true. use fixed fac scale
 91.1880  = scale            ! fixed ren scale
 91.1880  = dsqrt_q2fact1    ! fixed fact scale for pdf1
 91.1880  = dsqrt_q2fact2    ! fixed fact scale for pdf2
 1        = scalefact        ! scale factor for event-by-event scales
#*********************************************************************
# Matching - Warning! ickkw > 1 is still beta
#*********************************************************************
 0        = ickkw            ! 0 no matching, 1 MLM, 2 CKKW matching
 1        = highestmult      ! for ickkw=2, highest mult group
 1        = ktscheme         ! for ickkw=1, 1 Durham kT, 2 Pythia pTE
 1        = alpsfact         ! scale factor for QCD emission vx
 F        = chcluster        ! cluster only according to channel diag
 T        = pdfwgt           ! for ickkw=1, perform pdf reweighting
#*********************************************************************
# Automatic ptj and mjj cuts if xqcut > 0
# (turn off for VBF and single top processes)
#**********************************************************
   T  = auto_ptj_mjj
#**********************************************************
#
#**********************************
# BW cutoff (M+/-bwcutoff*Gamma)
#**********************************
  15  = bwcutoff
#**********************************************************
# Apply pt/E/eta/dr/mij cuts on decay products or not
# (note that etmiss/ptll/ptheavy/sorted cuts always apply)
#**********************************************************
   T  = cut_decays
#*************************************************************
# Number of helicities to sum per event (0 = all helicities)
# 0 gives more stable result, but longer run time (needed for
# long decay chains e.g.).
# Use >=2 if most helicities contribute, e.g. pure QCD.
#*************************************************************
   0  = nhel
#*******************
# Standard Cuts
#*******************
#
#*********************************************************************
# Minimum and maximum pt's                                           *
#*********************************************************************
 20  = ptj       ! minimum pt for the jets
  0  = ptb       ! minimum pt for the b
 10  = pta       ! minimum pt for the photons
 10  = ptl       ! minimum pt for the charged leptons
  0  = misset    ! minimum missing Et (sum of neutrino's momenta)
  0  = ptheavy   ! minimum pt for one heavy final state
 1.0 = ptonium   ! minimum pt for the quarkonium states
 1d5 = ptjmax    ! maximum pt for the jets
 1d5 = ptbmax    ! maximum pt for the b
 1d5 = ptamax    ! maximum pt for the photons
 1d5 = ptlmax    ! maximum pt for the charged leptons
 1d5 = missetmax ! maximum missing Et (sum of neutrino's momenta)
#*********************************************************************
# Minimum and maximum E's (in the lab frame)                         *
#*********************************************************************
  0  = ej     ! minimum E for the jets
  0  = eb     ! minimum E for the b
  0  = ea     ! minimum E for the photons
  0  = el     ! minimum E for the charged leptons
 1d5  = ejmax ! maximum E for the jets
 1d5  = ebmax ! maximum E for the b
 1d5  = eamax ! maximum E for the photons
 1d5  = elmax ! maximum E for the charged leptons
#*********************************************************************
# Maximum and minimum rapidity                                       *
#*********************************************************************
   5  = etaj    ! max rap for the jets
 1d2  = etab    ! max rap for the b
 2.5  = etaa    ! max rap for the photons
 2.5  = etal    ! max rap for the charged leptons
 0.6  = etaonium ! max rap for the quarkonium states
 0d0  = etajmin ! min rap for the jets
 0d0  = etabmin ! min rap for the b
 0d0  = etaamin ! min rap for the photons
 0d0  = etalmin ! main rap for the charged leptons
#*********************************************************************
# Minimum and maximum DeltaR distance                                *
#*********************************************************************
 0.4 = drjj    ! min distance between jets
 0   = drbb    ! min distance between b's
 0.4 = drll    ! min distance between leptons
 0.4 = draa    ! min distance between gammas
 0   = drbj    ! min distance between b and jet
 0.4 = draj    ! min distance between gamma and jet
 0.4 = drjl    ! min distance between jet and lepton
 0   = drab    ! min distance between gamma and b
 0   = drbl    ! min distance between b and lepton
 0.4 = dral    ! min distance between gamma and lepton
 1d2 = drjjmax ! max distance between jets
 1d2 = drbbmax ! max distance between b's
 1d2 = drllmax ! max distance between leptons
 1d2 = draamax ! max distance between gammas
 1d2 = drbjmax ! max distance between b and jet
 1d2 = drajmax ! max distance between gamma and jet
 1d2 = drjlmax ! max distance between jet and lepton
 1d2 = drabmax ! max distance between gamma and b
 1d2 = drblmax ! max distance between b and lepton
 1d2 = dralmax ! maxdistance between gamma and lepton
#*********************************************************************
# Minimum and maximum invariant mass for pairs                       *
#*********************************************************************
 0   = mmjj    ! min invariant mass of a jet pair
 0   = mmbb    ! min invariant mass of a b pair
 0   = mmaa    ! min invariant mass of gamma gamma pair
 0   = mmll    ! min invariant mass of l+l- (same flavour) lepton pair
 1d5 = mmjjmax ! max invariant mass of a jet pair
 1d5 = mmbbmax ! max invariant mass of a b pair
 1d5 = mmaamax ! max invariant mass of gamma gamma pair
 1d5 = mmllmax ! max invariant mass of l+l- (same flavour) lepton pair
#*********************************************************************
# Minimum and maximum invariant mass for all letpons                 *
#*********************************************************************
 0   = mmnl    ! min invariant mass for all letpons (l+- and vl)
 1d5 = mmnlmax ! max invariant mass for all letpons (l+- and vl)
#*********************************************************************
# Minimum and maximum pt for 4-momenta sum of leptons                *
#*********************************************************************
 0   = ptllmin  ! Minimum pt for 4-momenta sum of leptons(l and vl)
 1d5 = ptllmax  ! Maximum pt for 4-momenta sum of leptons(l and vl)
#*********************************************************************
# Inclusive cuts                                                     *
#*********************************************************************
 0  = xptj ! minimum pt for at least one jet
 0  = xptb ! minimum pt for at least one b
 0  = xpta ! minimum pt for at least one photon
 0  = xptl ! minimum pt for at least one charged lepton
#*********************************************************************
# Control the pt's of the jets sorted by pt                          *
#*********************************************************************
 0   = ptj1min ! minimum pt for the leading jet in pt
 0   = ptj2min ! minimum pt for the second jet in pt
 0   = ptj3min ! minimum pt for the third jet in pt
 0   = ptj4min ! minimum pt for the fourth jet in pt
 1d5 = ptj1max ! maximum pt for the leading jet in pt
 1d5 = ptj2max ! maximum pt for the second jet in pt
 1d5 = ptj3max ! maximum pt for the third jet in pt
 1d5 = ptj4max ! maximum pt for the fourth jet in pt
 0   = cutuse  ! reject event if fails any (0) / all (1) jet pt cuts
#*********************************************************************
# Control the Ht(k)=Sum of k leading jets                            *
#*********************************************************************
 0   = htjmin ! minimum jet HT=Sum(jet pt)
 1d5 = htjmax ! maximum jet HT=Sum(jet pt)
 0   = ihtmin  !inclusive Ht for all partons (including b)
 1d5 = ihtmax  !inclusive Ht for all partons (including b)
 0   = ht2min ! minimum Ht for the two leading jets
 0   = ht3min ! minimum Ht for the three leading jets
 0   = ht4min ! minimum Ht for the four leading jets
 1d5 = ht2max ! maximum Ht for the two leading jets
 1d5 = ht3max ! maximum Ht for the three leading jets
 1d5 = ht4max ! maximum Ht for the four leading jets
#*********************************************************************
# WBF cuts                                                           *
#*********************************************************************
 0   = xetamin ! minimum rapidity for two jets in the WBF case
 0   = deltaeta ! minimum rapidity for two jets in the WBF case
#*********************************************************************
# maximal pdg code for quark to be considered as a light jet         *
# (otherwise b cuts are applied)                                     *
#*********************************************************************
 4 = maxjetflavor
#*********************************************************************
# Jet measure cuts                                                   *
#*********************************************************************
 0   = xqcut   ! minimum kt jet measure between partons
#*********************************************************************
</MGRunCard>
<MGGenerationInfo>
#  Number of Events        :        1000
#  Integrated weight (pb)  :  .23921E+04
#  Truncated wgt (pb)      :  .00000E+00
#  Unit wgt                :  .23921E+01
</MGGenerationInfo>
</header>
<init>
     2212     2212  0.40000000000E+04  0.40000000000E+04 0 0 10042 10042 3  1
  0.23921000000E+04  0.13675000000E+02  0.23921000000E+01   0
</init>
<event>
 5   0  0.2392100E+01  0.7792081E+02  0.7957747E-01  0.1333252E+00
       -2   -1    0    0    0  501  0.00000000000E+00  0.00000000000E+00  0.21652064092E+02  0.21652064092E+02  0.00000000000E+00 0.  1.
        1   -1    0    0  501    0  0.00000000000E+00  0.00000000000E+00 -0.70104781805E+02  0.70104781805E+02  0.00000000000E+00 0. -1.
      -24    2    1    2    0    0  0.00000000000E+00  0.00000000000E+00 -0.48452717713E+02  0.91756845897E+02  0.77920811823E+02 0.  0.
       11    1    3    3    0    0 -0.50489726204E+01  0.33621684971E+02 -0.46631172451E+02  0.57709410575E+02  0.00000000000E+00 0. -1.
      -12    1    3    3    0    0  0.50489726204E+01 -0.33621684971E+02 -0.18215452626E+01  0.34047435322E+02  0.00000000000E+00 0.  1.
</event>
<event>
 5   0  0.2392100E+01  0.7872956E+02  0.7957747E-01  0.1331016E+00
       -2   -1    0    0    0  501  0.00000000000E+00  0.00000000000E+00  0.12642623754E+03  0.12642623754E+03  0.00000000000E+00 0.  1.
        1   -1    0    0  501    0  0.00000000000E+00  0.00000000000E+00 -0.12256838483E+02  0.12256838483E+02  0.00000000000E+00 0. -1.
      -24    2    1    2    0    0  0.00000000000E+00  0.00000000000E+00  0.11416939906E+03  0.13868307603E+03  0.78729561757E+02 0.  0.
       11    1    3    3    0    0 -0.15291052635E+00  0.20519783999E+02 -0.20900756895E+01  0.20626520147E+02  0.00000000000E+00 0. -1.
      -12    1    3    3    0    0  0.15291052635E+00 -0.20519783999E+02  0.11625947475E+03  0.11805655588E+03  0.00000000000E+00 0.  1.
</event>
<event>
 5   0  0.2392100E+01  0.8208069E+02  0.7957747E-01  0.1322066E+00
       -2   -1    0    0    0  501  0.00000000000E+00  0.00000000000E+00  0.18896282816E+03  0.18896282816E+03  0.00000000000E+00 0.  1.
        1   -1    0    0  501    0  0.00000000000E+00  0.00000000000E+00 -0.89134464856E+01  0.89134464856E+01  0.00000000000E+00 0. -1.
      -24    2    1    2    0    0  0.00000000000E+00  0.00000000000E+00  0.18004938168E+03  0.19787627465E+03  0.82080693384E+02 0.  0.
       11    1    3    3    0    0 -0.91225295430E+01 -0.21094514916E+02  0.80551567546E+01  0.24353329447E+02  0.00000000000E+00 0. -1.
      -12    1    3    3    0    0  0.91225295430E+01  0.21094514916E+02  0.17199422492E+03  0.17352294520E+03  0.00000000000E+00 0.  1.
</event>
<event>
 5   0  0.2392100E+01  0.8060229E+02  0.7957747E-01  0.1325954E+00
       -2   -1    0    0    0  501  0.00000000000E+00  0.00000000000E+00  0.38288347835E+02  0.38288347835E+02  0.00000000000E+00 0.  1.
        1   -1    0    0  501    0  0.00000000000E+00  0.00000000000E+00 -0.42419754868E+02  0.42419754868E+02  0.00000000000E+00 0. -1.
      -24    2    1    2    0    0  0.00000000000E+00  0.00000000000E+00 -0.41314070327E+01  0.80708102702E+02  0.80602291020E+02 0.  0.
       11    1    3    3    0    0 -0.24022172504E+00 -0.28148426117E+02 -0.30944347031E+02  0.41832334534E+02  0.00000000000E+00 0. -1.
      -12    1    3    3    0    0  0.24022172504E+00  0.28148426117E+02  0.26812939999E+02  0.38875768169E+02  0.00000000000E+00 0.  1.
</event>
<event>
 5   0  0.2392100E+01  0.8004616E+02  0.7957747E-01  0.1327441E+00
       -2   -1    0    0    0  501  0.00000000000E+00  0.00000000000E+00  0.39217582900E+03  0.39217582900E+03  0.00000000000E+00 0.  1.
        1   -1    0    0  501    0  0.00000000000E+00  0.00000000000E+00 -0.40845121998E+01  0.40845121998E+01  0.00000000000E+00 0. -1.
      -24    2    1    2    0    0  0.00000000000E+00  0.00000000000E+00  0.38809131680E+03  0.39626034120E+03  0.80046160633E+02 0.  0.
       11    1    3    3    0    0 -0.33419279042E+02  0.16064547461E+02  0.11947204940E+03  0.12509391866E+03  0.00000000000E+00 0. -1.
      -12    1    3    3    0    0  0.33419279042E+02 -0.16064547461E+02  0.26861926740E+03  0.27116642254E+03  0.00000000000E+00 0.  1.
</event>
<event>
 5   0  0.2392100E+01  0.8101651E+02  0.7957747E-01  0.1324855E+00
       -2   -1    0    0    0  501  0.00000000000E+00  0.00000000000E+00  0.28202099118E+03  0.28202099118E+03  0.00000000000E+00 0.  1.
        1   -1    0    0  501    0  0.00000000000E+00  0.00000000000E+00 -0.58184279322E+01  0.58184279322E+01  0.00000000000E+00 0. -1.
      -24    2    1    2    0    0  0.00000000000E+00  0.00000000000E+00  0.27620256324E+03  0.28783941911E+03  0.81016512207E+02 0.  0.
       11    1    3    3    0    0  0.15574586802E+02  0.10639206550E+02  0.10734830874E+02  0.21702466771E+02  0.00000000000E+00 0. -1.
      -12    1    3    3    0    0 -0.15574586802E+02 -0.10639206550E+02  0.26546773237E+03  0.26613695234E+03  0.00000000000E+00 0.  1.
</event>
<event>
 5   0  0.2392100E+01  0.7636206E+02  0.7957747E-01  0.1337649E+00
       -4   -1    0    0    0  501  0.00000000000E+00  0.00000000000E+00  0.15653803217E+02  0.15653803217E+02  0.00000000000E+00 0.  1.
        3   -1    0    0  501    0  0.00000000000E+00  0.00000000000E+00 -0.93126945975E+02  0.93126945975E+02  0.00000000000E+00 0. -1.
      -24    2    1    2    0    0  0.00000000000E+00  0.00000000000E+00 -0.77473142758E+02  0.10878074919E+03  0.76362055669E+02 0.  0.
       11    1    3    3    0    0 -0.69379802816E+01 -0.35509627537E+02 -0.56109040914E+02  0.66762966459E+02  0.00000000000E+00 0. -1.
      -12    1    3    3    0    0  0.69379802816E+01  0.35509627537E+02 -0.21364101845E+02  0.42017782733E+02  0.00000000000E+00 0.  1.
</event>
<event>
 5   0  0.2392100E+01  0.1081279E+03  0.7957747E-01  0.1265788E+00
        3   -1    0    0  501    0  0.00000000000E+00  0.00000000000E+00  0.28282972560E+03  0.28282972560E+03  0.00000000000E+00 0. -1.
       -4   -1    0    0    0  501  0.00000000000E+00  0.00000000000E+00 -0.10334529294E+02  0.10334529294E+02  0.00000000000E+00 0.  1.
      -24    2    1    2    0    0  0.00000000000E+00  0.00000000000E+00  0.27249519630E+03  0.29316425489E+03  0.10812792580E+03 0.  0.
       11    1    3    3    0    0 -0.51751380026E+02  0.48436422559E+01  0.17657597472E+03  0.18406721885E+03  0.00000000000E+00 0. -1.
      -12    1    3    3    0    0  0.51751380026E+02 -0.48436422559E+01  0.95919221580E+02  0.10909703604E+03  0.00000000000E+00 0.  1.
</event>
<event>
 5   0  0.2392100E+01  0.7997914E+02  0.7957747E-01  0.1327621E+00
        1   -1    0    0  501    0  0.00000000000E+00  0.00000000000E+00  0.36051601991E+01  0.36051601991E+01  0.00000000000E+00 0. -1.
       -2   -1    0    0    0  501  0.00000000000E+00  0.00000000000E+00 -0.44357691386E+03  0.44357691386E+03  0.00000000000E+00 0.  1.
      -24    2    1    2    0    0  0.00000000000E+00  0.00000000000E+00 -0.43997175366E+03  0.44718207406E+03  0.79979143159E+02 0.  0.
       11    1    3    3    0    0 -0.33815042903E+02 -0.17252739333E+01 -0.10101838613E+03  0.10654176661E+03  0.00000000000E+00 0. -1.
      -12    1    3    3    0    0  0.33815042903E+02  0.17252739333E+01 -0.33895336753E+03  0.34064030745E+03  0.00000000000E+00 0.  1.
</event>
<event>
 5   0  0.2392100E+01  0.8034614E+02  0.7957747E-01  0.1326637E+00
       -2   -1    0    0    0  501  0.00000000000E+00  0.00000000000E+00  0.12114280463E+03  0.12114280463E+03  0.00000000000E+00 0.  1.
        1   -1    0    0  501    0  0.00000000000E+00  0.00000000000E+00 -0.13322090548E+02  0.13322090548E+02  0.00000000000E+00 0. -1.
      -24    2    1    2    0    0  0.00000000000E+00  0.00000000000E+00  0.10782071408E+03  0.13446489518E+03  0.80346136498E+02 0.  0.
       11    1    3    3    0    0  0.17924322079E+02  0.28892542296E+02  0.18101622698E+02  0.38519203868E+02  0.00000000000E+00 0. -1.
      -12    1    3    3    0    0 -0.17924322079E+02 -0.28892542296E+02  0.89719091386E+02  0.95945691313E+02  0.00000000000E+00 0.  1.
</event>
<event>
 5   0  0.2392100E+01  0.9117624E+02  0.7957747E-01  0.1300027E+00
        1   -1    0    0  501    0  0.00000000000E+00  0.00000000000E+00  0.49203920712E+02  0.49203920712E+02  0.00000000000E+00 0. -1.
       -2   -1    0    0    0  501  0.00000000000E+00  0.00000000000E+00 -0.42238027223E+02  0.42238027223E+02  0.00000000000E+00 0.  1.
      -24    2    1    2    0    0  0.00000000000E+00  0.00000000000E+00  0.69658934892E+01  0.91441947935E+02  0.91176236872E+02 0.  0.
       11    1    3    3    0    0 -0.22497334826E+02  0.51316294486E+01  0.42914352633E+02  0.48724792016E+02  0.00000000000E+00 0. -1.
      -12    1    3    3    0    0  0.22497334826E+02 -0.51316294486E+01 -0.35948459144E+02  0.42717155920E+02  0.00000000000E+00 0.  1.
</event>
<event>
 5   0  0.2392100E+01  0.7951547E+02  0.7957747E-01  0.1328873E+00
       -2   -1    0    0    0  501  0.00000000000E+00  0.00000000000E+00  0.89381269518E+02  0.89381269518E+02  0.00000000000E+00 0.  1.
        1   -1    0    0  501    0  0.00000000000E+00  0.00000000000E+00 -0.17684662694E+02  0.17684662694E+02  0.00000000000E+00 0. -1.
      -24    2    1    2    0    0  0.00000000000E+00  0.00000000000E+00  0.71696606824E+02  0.10706593221E+03  0.79515472773E+02 0.  0.
       11    1    3    3    0    0 -0.23752864198E+02  0.91708556222E+01 -0.52661801746E+01  0.26000688531E+02  0.00000000000E+00 0. -1.
      -12    1    3    3    0    0  0.23752864198E+02 -0.91708556222E+01  0.76962786998E+02  0.81065243681E+02  0.00000000000E+00 0.  1.
</event>
<event>
 5   0  0.2392100E+01  0.8130169E+02  0.7957747E-01  0.1324103E+00
       -2   -1    0    0    0  501  0.00000000000E+00  0.00000000000E+00  0.37385733905E+01  0.37385733905E+01  0.00000000000E+00 0.  1.
        1   -1    0    0  501    0  0.00000000000E+00  0.00000000000E+00 -0.44201112306E+03  0.44201112306E+03  0.00000000000E+00 0. -1.
      -24    2    1    2    0    0  0.00000000000E+00  0.00000000000E+00 -0.43827254967E+03  0.44574969645E+03  0.81301685664E+02 0.  0.
       11    1    3    3    0    0  0.33857370927E+02 -0.17670494696E+02 -0.14278676566E+03  0.14780604993E+03  0.00000000000E+00 0. -1.
      -12    1    3    3    0    0 -0.33857370927E+02  0.17670494696E+02 -0.29548578401E+03  0.29794364652E+03  0.00000000000E+00 0.  1.
</event>
<event>
 5   0  0.2392100E+01  0.8101256E+02  0.7957747E-01  0.1324865E+00
        3   -1    0    0  501    0  0.00000000000E+00  0.00000000000E+00  0.52257745104E+02  0.52257745104E+02  0.00000000000E+00 0. -1.
       -4   -1    0    0    0  501  0.00000000000E+00  0.00000000000E+00 -0.31397428795E+02  0.31397428795E+02  0.00000000000E+00 0.  1.
      -24    2    1    2    0    0  0.00000000000E+00  0.00000000000E+00  0.20860316309E+02  0.83655173899E+02  0.81012562752E+02 0.  0.
       11    1    3    3    0    0 -0.26000960405E+01 -0.11080084163E+02  0.50572779439E+02  0.51837580814E+02  0.00000000000E+00 0. -1.
      -12    1    3    3    0    0  0.26000960405E+01  0.11080084163E+02 -0.29712463130E+02  0.31817593085E+02  0.00000000000E+00 0.  1.
</event>
<event>
 5   0  0.2392100E+01  0.8013801E+02  0.7957747E-01  0.1327194E+00
        1   -1    0    0  501    0  0.00000000000E+00  0.00000000000E+00  0.44494948093E+02  0.44494948093E+02  0.00000000000E+00 0. -1.
       -2   -1    0    0    0  501  0.00000000000E+00  0.00000000000E+00 -0.36083309085E+02  0.36083309085E+02  0.00000000000E+00 0.  1.
      -24    2    1    2    0    0  0.00000000000E+00  0.00000000000E+00  0.84116390078E+01  0.80578257177E+02  0.80138005085E+02 0.  0.
       11    1    3    3    0    0  0.65226639171E+01  0.24154424238E+02  0.35675420072E+02  0.43574269382E+02  0.00000000000E+00 0. -1.
      -12    1    3    3    0    0 -0.65226639171E+01 -0.24154424238E+02 -0.27263781064E+02  0.37003987795E+02  0.00000000000E+00 0.  1.
</event>
<event>
 5   0  0.2392100E+01  0.7902304E+02  0.7957747E-01  0.1330212E+00
       -2   -1    0    0    0  501  0.00000000000E+00  0.00000000000E+00  0.10736306079E+02  0.10736306079E+02  0.00000000000E+00 0.  1.
        1   -1    0    0  501    0  0.00000000000E+00  0.00000000000E+00 -0.14540941919E+03  0.14540941919E+03  0.00000000000E+00 0. -1.
      -24    2    1    2    0    0  0.00000000000E+00  0.00000000000E+00 -0.13467311311E+03  0.15614572527E+03  0.79023035405E+02 0.  0.
       11    1    3    3    0    0 -0.37069855770E+01  0.22165479850E+02 -0.13155073436E+03  0.13345653207E+03  0.00000000000E+00 0. -1.
      -12    1    3    3    0    0  0.37069855770E+01 -0.22165479850E+02 -0.31223787417E+01  0.22689193199E+02  0.00000000000E+00 0.  1.
</event>
<event>
 5   0  0.2392100E+01  0.7992306E+02  0.7957747E-01  0.1327772E+00
       -4   -1    0    0    0  501  0.00000000000E+00  0.00000000000E+00  0.36770941615E+02  0.36770941615E+02  0.00000000000E+00 0.  1.
        3   -1    0    0  501    0  0.00000000000E+00  0.00000000000E+00 -0.43428968112E+02  0.43428968112E+02  0.00000000000E+00 0. -1.
      -24    2    1    2    0    0  0.00000000000E+00  0.00000000000E+00 -0.66580264972E+01  0.80199909727E+02  0.79923064277E+02 0.  0.
       11    1    3    3    0    0 -0.10900761162E+02  0.25143952792E+02 -0.32513757969E+02  0.42522810504E+02  0.00000000000E+00 0. -1.
      -12    1    3    3    0    0  0.10900761162E+02 -0.25143952792E+02  0.25855731472E+02  0.37677099223E+02  0.00000000000E+00 0.  1.
</event>
<event>
 5   0  0.2392100E+01  0.8234889E+02  0.7957747E-01  0.1321371E+00
       -2   -1    0    0    0  501  0.00000000000E+00  0.00000000000E+00  0.29943840739E+03  0.29943840739E+03  0.00000000000E+00 0.  1.
        1   -1    0    0  501    0  0.00000000000E+00  0.00000000000E+00 -0.56617148754E+01  0.56617148754E+01  0.00000000000E+00 0. -1.
      -24    2    1    2    0    0  0.00000000000E+00  0.00000000000E+00  0.29377669251E+03  0.30510012226E+03  0.82348889133E+02 0.  0.
       11    1    3    3    0    0  0.46202824229E+01 -0.40375091810E+02  0.12235712881E+03  0.12892929077E+03  0.00000000000E+00 0. -1.
      -12    1    3    3    0    0 -0.46202824229E+01  0.40375091810E+02  0.17141956370E+03  0.17617083149E+03  0.00000000000E+00 0.  1.
</event>
<event>
 5   0  0.2392100E+01  0.7924743E+02  0.7957747E-01  0.1329600E+00
        3   -1    0    0  501    0  0.00000000000E+00  0.00000000000E+00  0.22270741562E+02  0.22270741562E+02  0.00000000000E+00 0. -1.
       -4   -1    0    0    0  501  0.00000000000E+00  0.00000000000E+00 -0.70497828899E+02  0.70497828899E+02  0.00000000000E+00 0.  1.
      -24    2    1    2    0    0  0.00000000000E+00  0.00000000000E+00 -0.48227087336E+02  0.92768570461E+02  0.79247433475E+02 0.  0.
       11    1    3    3    0    0  0.50000811871E+01  0.25924198505E+02  0.10473729575E+02  0.28403589407E+02  0.00000000000E+00 0. -1.
      -12    1    3    3    0    0 -0.50000811871E+01 -0.25924198505E+02 -0.58700816912E+02  0.64364981054E+02  0.00000000000E+00 0.  1.
</event>
<event>
 5   0  0.2392100E+01  0.8195544E+02  0.7957747E-01  0.1322392E+00
        1   -1    0    0  501    0  0.00000000000E+00  0.00000000000E+00  0.56575320562E+02  0.56575320562E+02  0.00000000000E+00 0. -1.
       -2   -1    0    0    0  501  0.00000000000E+00  0.00000000000E+00 -0.29680315602E+02  0.29680315602E+02  0.00000000000E+00 0.  1.
      -24    2    1    2    0    0  0.00000000000E+00  0.00000000000E+00  0.26895004960E+02  0.86255636165E+02  0.81955435930E+02 0.  0.
       11    1    3    3    0    0  0.19473625991E+02 -0.32461890402E+02  0.29960784397E+02  0.48276754648E+02  0.00000000000E+00 0. -1.
      -12    1    3    3    0    0 -0.19473625991E+02  0.32461890402E+02 -0.30657794370E+01  0.37978881517E+02  0.00000000000E+00 0.  1.
</event>
<event>
 5   0  0.2392100E+01  0.8058168E+02  0.7957747E-01  0.1326009E+00
       -2   -1    0    0    0  501  0.00000000000E+00  0.00000000000E+00  0.62231409575E+02  0.62231409575E+02  0.00000000000E+00 0.  1.
        1   -1    0    0  501    0  0.00000000000E+00  0.00000000000E+00 -0.26085733726E+02  0.26085733726E+02  0.00000000000E+00 0. -1.
      -24    2    1    2    0    0  0.00000000000E+00  0.00000000000E+00  0.36145675850E+02  0.88317143301E+02  0.80581684757E+02 0.  0.
       11    1    3    3    0    0 -0.11346424442E+02 -0.13965565803E+02 -0.21437351390E+02  0.27988183407E+02  0.00000000000E+00 0. -1.
      -12    1    3    3    0    0  0.11346424442E+02  0.13965565803E+02  0.57583027240E+02  0.60328959894E+02  0.00000000000E+00 0.  1.
</event>
<event>
 5   0  0.2392100E+01  0.7450823E+02  0.7957747E-01  0.1343037E+00
       -2   -1    0    0    0  501  0.00000000000E+00  0.00000000000E+00  0.39715723309E+02  0.39715723309E+02  0.00000000000E+00 0.  1.
        1   -1    0    0  501    0  0.00000000000E+00  0.00000000000E+00 -0.34945075412E+02  0.34945075412E+02  0.00000000000E+00 0. -1.
      -24    2    1    2    0    0  0.00000000000E+00  0.00000000000E+00  0.47706478974E+01  0.74660798721E+02  0.74508226286E+02 0.  0.
       11    1    3    3    0    0 -0.24197759487E+02  0.18307342759E+02 -0.19273250553E+02  0.35946467837E+02  0.00000000000E+00 0. -1.
      -12    1    3    3    0    0  0.24197759487E+02 -0.18307342759E+02  0.24043898450E+02  0.38714330884E+02  0.00000000000E+00 0.  1.
</event>
<event>
 5   0  0.2392100E+01  0.7910166E+02  0.7957747E-01  0.1329998E+00
       -4   -1    0    0    0  501  0.00000000000E+00  0.00000000000E+00  0.24485125775E+02  0.24485125775E+02  0.00000000000E+00 0.  1.
        3   -1    0    0  501    0  0.00000000000E+00  0.00000000000E+00 -0.63886467890E+02  0.63886467890E+02  0.00000000000E+00 0. -1.
      -24    2    1    2    0    0  0.00000000000E+00  0.00000000000E+00 -0.39401342116E+02  0.88371593665E+02  0.79101661211E+02 0.  0.
       11    1    3    3    0    0  0.33423315498E+02  0.17554703659E+02 -0.32871321992E+02  0.50058060779E+02  0.00000000000E+00 0. -1.
      -12    1    3    3    0    0 -0.33423315498E+02 -0.17554703659E+02 -0.65300201239E+01  0.38313532886E+02  0.00000000000E+00 0.  1.
</event>
<event>
 5   0  0.2392100E+01  0.8152150E+02  0.7957747E-01  0.1323526E+00
       -4   -1    0    0    0  501  0.00000000000E+00  0.00000000000E+00  0.45092111077E+01  0.45092111077E+01  0.00000000000E+00 0.  1.
        3   -1    0    0  501    0  0.00000000000E+00  0.00000000000E+00 -0.36845439252E+03  0.36845439252E+03  0.00000000000E+00 0. -1.
      -24    2    1    2    0    0  0.00000000000E+00  0.00000000000E+00 -0.36394518141E+03  0.37296360363E+03  0.81521497519E+02 0.  0.
       11    1    3    3    0    0 -0.14759933095E+02 -0.37697796246E+02 -0.16029099806E+03  0.16532447951E+03  0.00000000000E+00 0. -1.
      -12    1    3    3    0    0  0.14759933095E+02  0.37697796246E+02 -0.20365418336E+03  0.20763912412E+03  0.00000000000E+00 0.  1.
</event>
<event>
 5   0  0.2392100E+01  0.7829858E+02  0.7957747E-01  0.1332204E+00
       -2   -1    0    0    0  501  0.00000000000E+00  0.00000000000E+00  0.88704319306E+02  0.88704319306E+02  0.00000000000E+00 0.  1.
        1   -1    0    0  501    0  0.00000000000E+00  0.00000000000E+00 -0.17278377764E+02  0.17278377764E+02  0.00000000000E+00 0. -1.
      -24    2    1    2    0    0  0.00000000000E+00  0.00000000000E+00  0.71425941542E+02  0.10598269707E+03  0.78298575677E+02 0.  0.
       11    1    3    3    0    0  0.63815458148E+01 -0.37516120275E+02  0.23271646225E+02  0.44606646652E+02  0.00000000000E+00 0. -1.
      -12    1    3    3    0    0 -0.63815458148E+01  0.37516120275E+02  0.48154295317E+02  0.61376050418E+02  0.00000000000E+00 0.  1.
</event>
<event>
 5   0  0.2392100E+01  0.7963657E+02  0.7957747E-01  0.1328545E+00
        1   -1    0    0  501    0  0.00000000000E+00  0.00000000000E+00  0.44933487975E+02  0.44933487975E+02  0.00000000000E+00 0. -1.
       -2   -1    0    0    0  501  0.00000000000E+00  0.00000000000E+00 -0.35285395777E+02  0.35285395777E+02  0.00000000000E+00 0.  1.
      -24    2    1    2    0    0  0.00000000000E+00  0.00000000000E+00  0.96480921978E+01  0.80218883752E+02  0.79636572173E+02 0.  0.
       11    1    3    3    0    0  0.19127103667E+02  0.26465609629E+02  0.27777091427E+02  0.42870052435E+02  0.00000000000E+00 0. -1.
      -12    1    3    3    0    0 -0.19127103667E+02 -0.26465609629E+02 -0.18128999229E+02  0.37348831317E+02  0.00000000000E+00 0.  1.
</event>
<event>
 5   0  0.2392100E+01  0.8615385E+02  0.7957747E-01  0.1311817E+00
       -2   -1    0    0    0  501  0.00000000000E+00  0.00000000000E+00  0.27603125567E+03  0.27603125567E+03  0.00000000000E+00 0.  1.
        1   -1    0    0  501    0  0.00000000000E+00  0.00000000000E+00 -0.67225043324E+01  0.67225043324E+01  0.00000000000E+00 0. -1.
      -24    2    1    2    0    0  0.00000000000E+00  0.00000000000E+00  0.26930875134E+03  0.28275376001E+03  0.86153846395E+02 0.  0.
       11    1    3    3    0    0  0.30320986262E+02  0.78477436953E+01  0.37590789043E+02  0.48928690048E+02  0.00000000000E+00 0. -1.
      -12    1    3    3    0    0 -0.30320986262E+02 -0.78477436953E+01  0.23171796230E+03  0.23382506996E+03  0.00000000000E+00 0.  1.
</event>
<event>
 5   0  0.2392100E+01  0.8129125E+02  0.7957747E-01  0.1324130E+00
        1   -1    0    0  501    0  0.00000000000E+00  0.00000000000E+00  0.15364081247E+02  0.15364081247E+02  0.00000000000E+00 0. -1.
       -2   -1    0    0    0  501  0.00000000000E+00  0.00000000000E+00 -0.10752785925E+03  0.10752785925E+03  0.00000000000E+00 0.  1.
      -24    2    1    2    0    0  0.00000000000E+00  0.00000000000E+00 -0.92163778007E+02  0.12289194050E+03  0.81291248383E+02 0.  0.
       11    1    3    3    0    0 -0.31263287600E+02 -0.14172970693E+02 -0.13175716231E+02  0.36767726990E+02  0.00000000000E+00 0. -1.
      -12    1    3    3    0    0  0.31263287600E+02  0.14172970693E+02 -0.78988061776E+02  0.86124213511E+02  0.00000000000E+00 0.  1.
</event>
<event>
 5   0  0.2392100E+01  0.8119523E+02  0.7957747E-01  0.1324383E+00
       -4   -1    0    0    0  501  0.00000000000E+00  0.00000000000E+00  0.47104951984E+01  0.47104951984E+01  0.00000000000E+00 0.  1.
        3   -1    0    0  501    0  0.00000000000E+00  0.00000000000E+00 -0.34989234633E+03  0.34989234633E+03  0.00000000000E+00 0. -1.
      -24    2    1    2    0    0  0.00000000000E+00  0.00000000000E+00 -0.34518185114E+03  0.35460284153E+03  0.81195226889E+02 0.  0.
       11    1    3    3    0    0 -0.68075047103E+01  0.38637207218E+02 -0.12699713853E+03  0.13291895687E+03  0.00000000000E+00 0. -1.
      -12    1    3    3    0    0  0.68075047103E+01 -0.38637207218E+02 -0.21818471261E+03  0.22168388466E+03  0.00000000000E+00 0.  1.
</event>
<event>
 5   0  0.2392100E+01  0.8067897E+02  0.7957747E-01  0.1325750E+00
       -2   -1    0    0    0  501  0.00000000000E+00  0.00000000000E+00  0.61467710319E+01  0.61467710319E+01  0.00000000000E+00 0.  1.
        1   -1    0    0  501    0  0.00000000000E+00  0.00000000000E+00 -0.26473643517E+03  0.26473643517E+03  0.00000000000E+00 0. -1.
      -24    2    1    2    0    0  0.00000000000E+00  0.00000000000E+00 -0.25858966414E+03  0.27088320620E+03  0.80678974976E+02 0.  0.
       11    1    3    3    0    0 -0.25636513639E+02  0.31074115270E+02 -0.13637183023E+03  0.14219742456E+03  0.00000000000E+00 0. -1.
      -12    1    3    3    0    0  0.25636513639E+02 -0.31074115270E+02 -0.12221783391E+03  0.12868578164E+03  0.00000000000E+00 0.  1.
</event>
<event>
 5   0  0.2392100E+01  0.8110670E+02  0.7957747E-01  0.1324617E+00
        1   -1    0    0  501    0  0.00000000000E+00  0.00000000000E+00  0.12566279481E+03  0.12566279481E+03  0.00000000000E+00 0. -1.
       -2   -1    0    0    0  501  0.00000000000E+00  0.00000000000E+00 -0.13087200201E+02  0.13087200201E+02  0.00000000000E+00 0.  1.
      -24    2    1    2    0    0  0.00000000000E+00  0.00000000000E+00  0.11257559461E+03  0.13874999501E+03  0.81106698944E+02 0.  0.
       11    1    3    3    0    0  0.34261934415E+02  0.15616317122E+02  0.82052276519E+02  0.90279153697E+02  0.00000000000E+00 0. -1.
      -12    1    3    3    0    0 -0.34261934415E+02 -0.15616317122E+02  0.30523318087E+02  0.48470841310E+02  0.00000000000E+00 0.  1.
</event>
<event>
 5   0  0.2392100E+01  0.7837923E+02  0.7957747E-01  0.1331981E+00
        1   -1    0    0  501    0  0.00000000000E+00  0.00000000000E+00  0.47674474771E+02  0.47674474771E+02  0.00000000000E+00 0. -1.
       -2   -1    0    0    0  501  0.00000000000E+00  0.00000000000E+00 -0.32214844837E+02  0.32214844837E+02  0.00000000000E+00 0.  1.
      -24    2    1    2    0    0  0.00000000000E+00  0.00000000000E+00  0.15459629934E+02  0.79889319609E+02  0.78379227030E+02 0.  0.
       11    1    3    3    0    0  0.93975179074E+01 -0.18710216869E+02  0.41495703958E+02  0.46478801674E+02  0.00000000000E+00 0. -1.
      -12    1    3    3    0    0 -0.93975179074E+01  0.18710216869E+02 -0.26036074023E+02  0.33410517935E+02  0.00000000000E+00 0.  1.
</event>
<event>
 5   0  0.2392100E+01  0.8303573E+02  0.7957747E-01  0.1319603E+00
       -4   -1    0    0    0  501  0.00000000000E+00  0.00000000000E+00  0.17763566239E+03  0.17763566239E+03  0.00000000000E+00 0.  1.
        3   -1    0    0  501    0  0.00000000000E+00  0.00000000000E+00 -0.97037568802E+01  0.97037568802E+01  0.00000000000E+00 0. -1.
      -24    2    1    2    0    0  0.00000000000E+00  0.00000000000E+00  0.16793190551E+03  0.18733941927E+03  0.83035734021E+02 0.  0.
       11    1    3    3    0    0  0.23417411727E+01  0.30082336028E+02  0.19624595521E+02  0.35993825054E+02  0.00000000000E+00 0. -1.
      -12    1    3    3    0    0 -0.23417411727E+01 -0.30082336028E+02  0.14830730999E+03  0.15134559422E+03  0.00000000000E+00 0.  1.
</event>
<event>
 5   0  0.2392100E+01  0.8083322E+02  0.7957747E-01  0.1325340E+00
        3   -1    0    0  501    0  0.00000000000E+00  0.00000000000E+00  0.35336065832E+01  0.35336065832E+01  0.00000000000E+00 0. -1.
       -4   -1    0    0    0  501  0.00000000000E+00  0.00000000000E+00 -0.46227626213E+03  0.46227626213E+03  0.00000000000E+00 0.  1.
      -24    2    1    2    0    0  0.00000000000E+00  0.00000000000E+00 -0.45874265554E+03  0.46580986871E+03  0.80833221960E+02 0.  0.
       11    1    3    3    0    0  0.28464986987E+02 -0.12881368832E+02 -0.81628527764E+02  0.87403670930E+02  0.00000000000E+00 0. -1.
      -12    1    3    3    0    0 -0.28464986987E+02  0.12881368832E+02 -0.37711412778E+03  0.37840619778E+03  0.00000000000E+00 0.  1.
</event>
<event>
 5   0  0.2392100E+01  0.8040469E+02  0.7957747E-01  0.1326481E+00
       -4   -1    0    0    0  501  0.00000000000E+00  0.00000000000E+00  0.19996941599E+02  0.19996941599E+02  0.00000000000E+00 0.  1.
        3   -1    0    0  501    0  0.00000000000E+00  0.00000000000E+00 -0.80823795503E+02  0.80823795503E+02  0.00000000000E+00 0. -1.
      -24    2    1    2    0    0  0.00000000000E+00  0.00000000000E+00 -0.60826853904E+02  0.10082073710E+03  0.80404694353E+02 0.  0.
       11    1    3    3    0    0 -0.17631841825E+02  0.14027102825E+02 -0.72163131294E+02  0.75598670477E+02  0.00000000000E+00 0. -1.
      -12    1    3    3    0    0  0.17631841825E+02 -0.14027102825E+02  0.11336277389E+02  0.25222066626E+02  0.00000000000E+00 0.  1.
</event>
<event>
 5   0  0.2392100E+01  0.7877325E+02  0.7957747E-01  0.1330896E+00
        1   -1    0    0  501    0  0.00000000000E+00  0.00000000000E+00  0.30012109755E+02  0.30012109755E+02  0.00000000000E+00 0. -1.
       -2   -1    0    0    0  501  0.00000000000E+00  0.00000000000E+00 -0.51689347671E+02  0.51689347671E+02  0.00000000000E+00 0.  1.
      -24    2    1    2    0    0  0.00000000000E+00  0.00000000000E+00 -0.21677237916E+02  0.81701457426E+02  0.78773253722E+02 0.  0.
       11    1    3    3    0    0 -0.24929544289E+02 -0.30226655560E+02 -0.66674968826E+01  0.39744036024E+02  0.00000000000E+00 0. -1.
      -12    1    3    3    0    0  0.24929544289E+02  0.30226655560E+02 -0.15009741033E+02  0.41957421402E+02  0.00000000000E+00 0.  1.
</event>
<event>
 5   0  0.2392100E+01  0.7984646E+02  0.7957747E-01  0.1327978E+00
        1   -1    0    0  501    0  0.00000000000E+00  0.00000000000E+00  0.37607945930E+02  0.37607945930E+02  0.00000000000E+00 0. -1.
       -2   -1    0    0    0  501  0.00000000000E+00  0.00000000000E+00 -0.42381051622E+02  0.42381051622E+02  0.00000000000E+00 0.  1.
      -24    2    1    2    0    0  0.00000000000E+00  0.00000000000E+00 -0.47731056919E+01  0.79988997552E+02  0.79846460106E+02 0.  0.
       11    1    3    3    0    0 -0.38699051516E+02 -0.54488764423E+01  0.57862861088E+01  0.39506808902E+02  0.00000000000E+00 0. -1.
      -12    1    3    3    0    0  0.38699051516E+02  0.54488764423E+01 -0.10559391801E+02  0.40482188650E+02  0.00000000000E+00 0.  1.
</event>
<event>
 5   0  0.2392100E+01  0.5262404E+02  0.7957747E-01  0.1424195E+00
       -2   -1    0    0    0  501  0.00000000000E+00  0.00000000000E+00  0.40700303254E+02  0.40700303254E+02  0.00000000000E+00 0.  1.
        1   -1    0    0  501    0  0.00000000000E+00  0.00000000000E+00 -0.17010253082E+02  0.17010253082E+02  0.00000000000E+00 0. -1.
      -24    2    1    2    0    0  0.00000000000E+00  0.00000000000E+00  0.23690050172E+02  0.57710556336E+02  0.52624042372E+02 0.  0.
       11    1    3    3    0    0 -0.13180503636E+02  0.21513808973E+01 -0.13017156854E+02  0.18649409868E+02  0.00000000000E+00 0. -1.
      -12    1    3    3    0    0  0.13180503636E+02 -0.21513808973E+01  0.36707207025E+02  0.39061146469E+02  0.00000000000E+00 0.  1.
</event>
<event>
 5   0  0.2392100E+01  0.8275046E+02  0.7957747E-01  0.1320335E+00
        1   -1    0    0  501    0  0.00000000000E+00  0.00000000000E+00  0.37492722695E+02  0.37492722695E+02  0.00000000000E+00 0. -1.
       -2   -1    0    0    0  501  0.00000000000E+00  0.00000000000E+00 -0.45659780047E+02  0.45659780047E+02  0.00000000000E+00 0.  1.
      -24    2    1    2    0    0  0.00000000000E+00  0.00000000000E+00 -0.81670573519E+01  0.83152502742E+02  0.82750455506E+02 0.  0.
       11    1    3    3    0    0 -0.28201071799E+02  0.18554142155E+02  0.19956603404E+02  0.39215082062E+02  0.00000000000E+00 0. -1.
      -12    1    3    3    0    0  0.28201071799E+02 -0.18554142155E+02 -0.28123660756E+02  0.43937420680E+02  0.00000000000E+00 0.  1.
</event>
<event>
 5   0  0.2392100E+01  0.8639733E+02  0.7957747E-01  0.1311225E+00
        1   -1    0    0  501    0  0.00000000000E+00  0.00000000000E+00  0.57545831271E+02  0.57545831271E+02  0.00000000000E+00 0. -1.
       -2   -1    0    0    0  501  0.00000000000E+00  0.00000000000E+00 -0.32428495881E+02  0.32428495881E+02  0.00000000000E+00 0.  1.
      -24    2    1    2    0    0  0.00000000000E+00  0.00000000000E+00  0.25117335391E+02  0.89974327152E+02  0.86397332189E+02 0.  0.
       11    1    3    3    0    0 -0.17084172005E+02  0.23752062480E+00  0.53877510211E+02  0.56521778597E+02  0.00000000000E+00 0. -1.
      -12    1    3    3    0    0  0.17084172005E+02 -0.23752062480E+00 -0.28760174820E+02  0.33452548555E+02  0.00000000000E+00 0.  1.
</event>
<event>
 5   0  0.2392100E+01  0.8033132E+02  0.7957747E-01  0.1326677E+00
        1   -1    0    0  501    0  0.00000000000E+00  0.00000000000E+00  0.17364275955E+02  0.17364275955E+02  0.00000000000E+00 0. -1.
       -2   -1    0    0    0  501  0.00000000000E+00  0.00000000000E+00 -0.92908010928E+02  0.92908010928E+02  0.00000000000E+00 0.  1.
      -24    2    1    2    0    0  0.00000000000E+00  0.00000000000E+00 -0.75543734973E+02  0.11027228688E+03  0.80331322414E+02 0.  0.
       11    1    3    3    0    0 -0.26120771083E+02 -0.68778934014E+01  0.30346034150E+01  0.27181039670E+02  0.00000000000E+00 0. -1.
      -12    1    3    3    0    0  0.26120771083E+02  0.68778934014E+01 -0.78578338389E+02  0.83091247214E+02  0.00000000000E+00 0.  1.
</event>
<event>
 5   0  0.2392100E+01  0.7922656E+02  0.7957747E-01  0.1329657E+00
       -2   -1    0    0    0  501  0.00000000000E+00  0.00000000000E+00  0.36120164269E+02  0.36120164269E+02  0.00000000000E+00 0.  1.
        1   -1    0    0  501    0  0.00000000000E+00  0.00000000000E+00 -0.43444212131E+02  0.43444212131E+02  0.00000000000E+00 0. -1.
      -24    2    1    2    0    0  0.00000000000E+00  0.00000000000E+00 -0.73240478614E+01  0.79564376400E+02  0.79226563190E+02 0.  0.
       11    1    3    3    0    0 -0.18064505662E+02  0.34845541242E+02 -0.90396643049E+01  0.40277209933E+02  0.00000000000E+00 0. -1.
      -12    1    3    3    0    0  0.18064505662E+02 -0.34845541242E+02  0.17156164435E+01  0.39287166467E+02  0.00000000000E+00 0.  1.
</event>
<event>
 5   0  0.2392100E+01  0.7965293E+02  0.7957747E-01  0.1328500E+00
        1   -1    0    0  501    0  0.00000000000E+00  0.00000000000E+00  0.76486213827E+02  0.76486213827E+02  0.00000000000E+00 0. -1.
       -2   -1    0    0    0  501  0.00000000000E+00  0.00000000000E+00 -0.20737689517E+02  0.20737689517E+02  0.00000000000E+00 0.  1.
      -24    2    1    2    0    0  0.00000000000E+00  0.00000000000E+00  0.55748524310E+02  0.97223903345E+02  0.79652931012E+02 0.  0.
       11    1    3    3    0    0  0.15288004585E+02 -0.43538875646E+01  0.72446309186E+02  0.74169718456E+02  0.00000000000E+00 0. -1.
      -12    1    3    3    0    0 -0.15288004585E+02  0.43538875646E+01 -0.16697784876E+02  0.23054184889E+02  0.00000000000E+00 0.  1.
</event>
<event>
 5   0  0.2392100E+01  0.8314004E+02  0.7957747E-01  0.1319337E+00
        1   -1    0    0  501    0  0.00000000000E+00  0.00000000000E+00  0.24272740495E+01  0.24272740495E+01  0.00000000000E+00 0. -1.
       -2   -1    0    0    0  501  0.00000000000E+00  0.00000000000E+00 -0.71193719967E+03  0.71193719967E+03  0.00000000000E+00 0.  1.
      -24    2    1    2    0    0  0.00000000000E+00  0.00000000000E+00 -0.70950992562E+03  0.71436447372E+03  0.83140043050E+02 0.  0.
       11    1    3    3    0    0 -0.18975339948E+02  0.16395984191E+02 -0.69887401374E+02  0.74250526560E+02  0.00000000000E+00 0. -1.
      -12    1    3    3    0    0  0.18975339948E+02 -0.16395984191E+02 -0.63962252425E+03  0.64011394716E+03  0.00000000000E+00 0.  1.
</event>
<event>
 5   0  0.2392100E+01  0.7914558E+02  0.7957747E-01  0.1329878E+00
       -2   -1    0    0    0  501  0.00000000000E+00  0.00000000000E+00  0.93799978654E+01  0.93799978654E+01  0.00000000000E+00 0.  1.
        1   -1    0    0  501    0  0.00000000000E+00  0.00000000000E+00 -0.16695158968E+03  0.16695158968E+03  0.00000000000E+00 0. -1.
      -24    2    1    2    0    0  0.00000000000E+00  0.00000000000E+00 -0.15757159182E+03  0.17633158755E+03  0.79145576120E+02 0.  0.
       11    1    3    3    0    0 -0.28303183756E+02  0.75844630364E+01 -0.13804276830E+03  0.14111839061E+03  0.00000000000E+00 0. -1.
      -12    1    3    3    0    0  0.28303183756E+02 -0.75844630364E+01 -0.19528823522E+02  0.35213196936E+02  0.00000000000E+00 0.  1.
</event>
<event>
 5   0  0.2392100E+01  0.8407922E+02  0.7957747E-01  0.1316955E+00
        1   -1    0    0  501    0  0.00000000000E+00  0.00000000000E+00  0.22289965156E+02  0.22289965156E+02  0.00000000000E+00 0. -1.
       -2   -1    0    0    0  501  0.00000000000E+00  0.00000000000E+00 -0.79288094444E+02  0.79288094444E+02  0.00000000000E+00 0.  1.
      -24    2    1    2    0    0  0.00000000000E+00  0.00000000000E+00 -0.56998129288E+02  0.10157805960E+03  0.84079221272E+02 0.  0.
       11    1    3    3    0    0  0.18466943695E+02  0.36352299720E+02 -0.16130622797E+02  0.43848770749E+02  0.00000000000E+00 0. -1.
      -12    1    3    3    0    0 -0.18466943695E+02 -0.36352299720E+02 -0.40867506491E+02  0.57729288850E+02  0.00000000000E+00 0.  1.
</event>
<event>
 5   0  0.2392100E+01  0.8005568E+02  0.7957747E-01  0.1327415E+00
       -2   -1    0    0    0  501  0.00000000000E+00  0.00000000000E+00  0.13428151372E+02  0.13428151372E+02  0.00000000000E+00 0.  1.
        1   -1    0    0  501    0  0.00000000000E+00  0.00000000000E+00 -0.11931858257E+03  0.11931858257E+03  0.00000000000E+00 0. -1.
      -24    2    1    2    0    0  0.00000000000E+00  0.00000000000E+00 -0.10589043120E+03  0.13274673394E+03  0.80055680330E+02 0.  0.
       11    1    3    3    0    0 -0.30079158414E+02  0.25404083576E+02 -0.64914560215E+02  0.75921165437E+02  0.00000000000E+00 0. -1.
      -12    1    3    3    0    0  0.30079158414E+02 -0.25404083576E+02 -0.40975870985E+02  0.56825568508E+02  0.00000000000E+00 0.  1.
</event>
<event>
 5   0  0.2392100E+01  0.8543447E+02  0.7957747E-01  0.1313580E+00
       -2   -1    0    0    0  501  0.00000000000E+00  0.00000000000E+00  0.26799242400E+02  0.26799242400E+02  0.00000000000E+00 0.  1.
        1   -1    0    0  501    0  0.00000000000E+00  0.00000000000E+00 -0.68090061856E+02  0.68090061856E+02  0.00000000000E+00 0. -1.
      -24    2    1    2    0    0  0.00000000000E+00  0.00000000000E+00 -0.41290819456E+02  0.94889304256E+02  0.85434467815E+02 0.  0.
       11    1    3    3    0    0  0.29469971229E+02 -0.68836480636E+01 -0.54129752520E+02  0.62015271690E+02  0.00000000000E+00 0. -1.
      -12    1    3    3    0    0 -0.29469971229E+02  0.68836480636E+01  0.12838933064E+02  0.32874032566E+02  0.00000000000E+00 0.  1.
</event>
<event>
 5   0  0.2392100E+01  0.8105980E+02  0.7957747E-01  0.1324741E+00
       -2   -1    0    0    0  501  0.00000000000E+00  0.00000000000E+00  0.22385409156E+02  0.22385409156E+02  0.00000000000E+00 0.  1.
        1   -1    0    0  501    0  0.00000000000E+00  0.00000000000E+00 -0.73381402142E+02  0.73381402142E+02  0.00000000000E+00 0. -1.
      -24    2    1    2    0    0  0.00000000000E+00  0.00000000000E+00 -0.50995992987E+02  0.95766811298E+02  0.81059797961E+02 0.  0.
       11    1    3    3    0    0  0.38390858978E+02  0.94689385680E+01 -0.14986959576E+02  0.42286260274E+02  0.00000000000E+00 0. -1.
      -12    1    3    3    0    0 -0.38390858978E+02 -0.94689385680E+01 -0.36009033411E+02  0.53480551024E+02  0.00000000000E+00 0.  1.
</event>
<event>
 5   0  0.2392100E+01  0.7813585E+02  0.7957747E-01  0.1332655E+00
        1   -1    0    0  501    0  0.00000000000E+00  0.00000000000E+00  0.69102252527E+02  0.69102252527E+02  0.00000000000E+00 0. -1.
       -2   -1    0    0    0  501  0.00000000000E+00  0.00000000000E+00 -0.22087600384E+02  0.22087600384E+02  0.00000000000E+00 0.  1.
      -24    2    1    2    0    0  0.00000000000E+00  0.00000000000E+00  0.47014652143E+02  0.91189852911E+02  0.78135854495E+02 0.  0.
       11    1    3    3    0    0  0.32594177547E+01 -0.34376188979E+02  0.21797611322E+01  0.34599097263E+02  0.00000000000E+00 0. -1.
      -12    1    3    3    0    0 -0.32594177547E+01  0.34376188979E+02  0.44834891011E+02  0.56590755648E+02  0.00000000000E+00 0.  1.
</event>
<event>
 5   0  0.2392100E+01  0.8013091E+02  0.7957747E-01  0.1327213E+00
        1   -1    0    0  501    0  0.00000000000E+00  0.00000000000E+00  0.15851061337E+03  0.15851061337E+03  0.00000000000E+00 0. -1.
       -2   -1    0    0    0  501  0.00000000000E+00  0.00000000000E+00 -0.10127024600E+02  0.10127024600E+02  0.00000000000E+00 0.  1.
      -24    2    1    2    0    0  0.00000000000E+00  0.00000000000E+00  0.14838358877E+03  0.16863763797E+03  0.80130914905E+02 0.  0.
       11    1    3    3    0    0 -0.96445379965E+01  0.36130898219E+02  0.43928881012E+02  0.57690601541E+02  0.00000000000E+00 0. -1.
      -12    1    3    3    0    0  0.96445379965E+01 -0.36130898219E+02  0.10445470776E+03  0.11094703643E+03  0.00000000000E+00 0.  1.
</event>
<event>
 5   0  0.2392100E+01  0.8128952E+02  0.7957747E-01  0.1324135E+00
       -2   -1    0    0    0  501  0.00000000000E+00  0.00000000000E+00  0.18685252087E+02  0.18685252087E+02  0.00000000000E+00 0.  1.
        1   -1    0    0  501    0  0.00000000000E+00  0.00000000000E+00 -0.88411794010E+02  0.88411794010E+02  0.00000000000E+00 0. -1.
      -24    2    1    2    0    0  0.00000000000E+00  0.00000000000E+00 -0.69726541923E+02  0.10709704610E+03  0.81289523520E+02 0.  0.
       11    1    3    3    0    0 -0.24172002364E+02  0.31491290320E+02 -0.23377051191E+02  0.46070311337E+02  0.00000000000E+00 0. -1.
      -12    1    3    3    0    0  0.24172002364E+02 -0.31491290320E+02 -0.46349490732E+02  0.61026734759E+02  0.00000000000E+00 0.  1.
</event>
<event>
 5   0  0.2392100E+01  0.8081408E+02  0.7957747E-01  0.1325391E+00
       -2   -1    0    0    0  501  0.00000000000E+00  0.00000000000E+00  0.49071408915E+02  0.49071408915E+02  0.00000000000E+00 0.  1.
        1   -1    0    0  501    0  0.00000000000E+00  0.00000000000E+00 -0.33272504961E+02  0.33272504961E+02  0.00000000000E+00 0. -1.
      -24    2    1    2    0    0  0.00000000000E+00  0.00000000000E+00  0.15798903953E+02  0.82343913876E+02  0.80814075422E+02 0.  0.
       11    1    3    3    0    0  0.77664882367E+01  0.37811451180E+02 -0.42725876186E+01  0.38836570199E+02  0.00000000000E+00 0. -1.
      -12    1    3    3    0    0 -0.77664882367E+01 -0.37811451180E+02  0.20071491572E+02  0.43507343677E+02  0.00000000000E+00 0.  1.
</event>
<event>
 5   0  0.2392100E+01  0.8309183E+02  0.7957747E-01  0.1319460E+00
       -2   -1    0    0    0  501  0.00000000000E+00  0.00000000000E+00  0.27027344242E+01  0.27027344242E+01  0.00000000000E+00 0.  1.
        1   -1    0    0  501    0  0.00000000000E+00  0.00000000000E+00 -0.63863589428E+03  0.63863589428E+03  0.00000000000E+00 0. -1.
      -24    2    1    2    0    0  0.00000000000E+00  0.00000000000E+00 -0.63593315986E+03  0.64133862871E+03  0.83091833920E+02 0.  0.
       11    1    3    3    0    0  0.28129561802E+02  0.23285155854E+02 -0.16503398912E+03  0.16902570306E+03  0.00000000000E+00 0. -1.
      -12    1    3    3    0    0 -0.28129561802E+02 -0.23285155854E+02 -0.47089917074E+03  0.47231292565E+03  0.00000000000E+00 0.  1.
</event>
<event>
 5   0  0.2392100E+01  0.8096346E+02  0.7957747E-01  0.1324995E+00
       -2   -1    0    0    0  501  0.00000000000E+00  0.00000000000E+00  0.81717945318E+02  0.81717945318E+02  0.00000000000E+00 0.  1.
        1   -1    0    0  501    0  0.00000000000E+00  0.00000000000E+00 -0.20053986415E+02  0.20053986415E+02  0.00000000000E+00 0. -1.
      -24    2    1    2    0    0  0.00000000000E+00  0.00000000000E+00  0.61663958903E+02  0.10177193173E+03  0.80963462507E+02 0.  0.
       11    1    3    3    0    0 -0.26245844523E+02  0.45422129718E+01 -0.74871497360E+01  0.27668275418E+02  0.00000000000E+00 0. -1.
      -12    1    3    3    0    0  0.26245844523E+02 -0.45422129718E+01  0.69151108639E+02  0.74103656316E+02  0.00000000000E+00 0.  1.
</event>
<event>
 5   0  0.2392100E+01  0.8957950E+02  0.7957747E-01  0.1303680E+00
       -2   -1    0    0    0  501  0.00000000000E+00  0.00000000000E+00  0.38707596513E+02  0.38707596513E+02  0.00000000000E+00 0.  1.
        1   -1    0    0  501    0  0.00000000000E+00  0.00000000000E+00 -0.51827601129E+02  0.51827601129E+02  0.00000000000E+00 0. -1.
      -24    2    1    2    0    0  0.00000000000E+00  0.00000000000E+00 -0.13120004616E+02  0.90535197642E+02  0.89579503744E+02 0.  0.
       11    1    3    3    0    0 -0.91072986317E+01 -0.43166412041E+02 -0.14378153615E+02  0.46400574547E+02  0.00000000000E+00 0. -1.
      -12    1    3    3    0    0  0.91072986317E+01  0.43166412041E+02  0.12581489995E+01  0.44134623096E+02  0.00000000000E+00 0.  1.
</event>
<event>
 5   0  0.2392100E+01  0.8262492E+02  0.7957747E-01  0.1320658E+00
        1   -1    0    0  501    0  0.00000000000E+00  0.00000000000E+00  0.67339888930E+01  0.67339888930E+01  0.00000000000E+00 0. -1.
       -2   -1    0    0    0  501  0.00000000000E+00  0.00000000000E+00 -0.25344847106E+03  0.25344847106E+03  0.00000000000E+00 0.  1.
      -24    2    1    2    0    0  0.00000000000E+00  0.00000000000E+00 -0.24671448217E+03  0.26018245995E+03  0.82624916075E+02 0.  0.
       11    1    3    3    0    0  0.41185850832E+02  0.48223859086E+00 -0.11329419816E+03  0.12054908626E+03  0.00000000000E+00 0. -1.
      -12    1    3    3    0    0 -0.41185850832E+02 -0.48223859086E+00 -0.13342028401E+03  0.13963337369E+03  0.00000000000E+00 0.  1.
</event>
<event>
 5   0  0.2392100E+01  0.7808167E+02  0.7957747E-01  0.1332805E+00
       -2   -1    0    0    0  501  0.00000000000E+00  0.00000000000E+00  0.20143617359E+02  0.20143617359E+02  0.00000000000E+00 0.  1.
        1   -1    0    0  501    0  0.00000000000E+00  0.00000000000E+00 -0.75666001767E+02  0.75666001767E+02  0.00000000000E+00 0. -1.
      -24    2    1    2    0    0  0.00000000000E+00  0.00000000000E+00 -0.55522384408E+02  0.95809619126E+02  0.78081674846E+02 0.  0.
       11    1    3    3    0    0 -0.17597242626E+02 -0.91848142590E+01 -0.69011821589E+02  0.71809855034E+02  0.00000000000E+00 0. -1.
      -12    1    3    3    0    0  0.17597242626E+02  0.91848142590E+01  0.13489437181E+02  0.23999764092E+02  0.00000000000E+00 0.  1.
</event>
<event>
 5   0  0.2392100E+01  0.8097321E+02  0.7957747E-01  0.1324970E+00
       -4   -1    0    0    0  501  0.00000000000E+00  0.00000000000E+00  0.21072422589E+02  0.21072422589E+02  0.00000000000E+00 0.  1.
        3   -1    0    0  501    0  0.00000000000E+00  0.00000000000E+00 -0.77787225993E+02  0.77787225993E+02  0.00000000000E+00 0. -1.
      -24    2    1    2    0    0  0.00000000000E+00  0.00000000000E+00 -0.56714803404E+02  0.98859648583E+02  0.80973212809E+02 0.  0.
       11    1    3    3    0    0 -0.35915130661E+01  0.30267585958E+02 -0.60892307092E+02  0.68094777985E+02  0.00000000000E+00 0. -1.
      -12    1    3    3    0    0  0.35915130661E+01 -0.30267585958E+02  0.41775036871E+01  0.30764870598E+02  0.00000000000E+00 0.  1.
</event>
<event>
 5   0  0.2392100E+01  0.7795204E+02  0.7957747E-01  0.1333165E+00
        1   -1    0    0  501    0  0.00000000000E+00  0.00000000000E+00  0.30216907538E+02  0.30216907538E+02  0.00000000000E+00 0. -1.
       -2   -1    0    0    0  501  0.00000000000E+00  0.00000000000E+00 -0.50274179027E+02  0.50274179027E+02  0.00000000000E+00 0.  1.
      -24    2    1    2    0    0  0.00000000000E+00  0.00000000000E+00 -0.20057271489E+02  0.80491086564E+02  0.77952042159E+02 0.  0.
       11    1    3    3    0    0  0.25138429527E+02  0.59694960101E+01  0.20103267721E+02  0.32737087451E+02  0.00000000000E+00 0. -1.
      -12    1    3    3    0    0 -0.25138429527E+02 -0.59694960101E+01 -0.40160539210E+02  0.47753999113E+02  0.00000000000E+00 0.  1.
</event>
<event>
 5   0  0.2392100E+01  0.7816157E+02  0.7957747E-01  0.1332583E+00
       -2   -1    0    0    0  501  0.00000000000E+00  0.00000000000E+00  0.14798214807E+02  0.14798214807E+02  0.00000000000E+00 0.  1.
        1   -1    0    0  501    0  0.00000000000E+00  0.00000000000E+00 -0.10320890953E+03  0.10320890953E+03  0.00000000000E+00 0. -1.
      -24    2    1    2    0    0  0.00000000000E+00  0.00000000000E+00 -0.88410694721E+02  0.11800712434E+03  0.78161566341E+02 0.  0.
       11    1    3    3    0    0  0.17606321167E+02 -0.18266471572E+02 -0.89085863021E+02  0.92627952147E+02  0.00000000000E+00 0. -1.
      -12    1    3    3    0    0 -0.17606321167E+02  0.18266471572E+02  0.67516830029E+00  0.25379172188E+02  0.00000000000E+00 0.  1.
</event>
<event>
 5   0  0.2392100E+01  0.8208066E+02  0.7957747E-01  0.1322066E+00
        3   -1    0    0  501    0  0.00000000000E+00  0.00000000000E+00  0.27569367137E+02  0.27569367137E+02  0.00000000000E+00 0. -1.
       -4   -1    0    0    0  501  0.00000000000E+00  0.00000000000E+00 -0.61093480702E+02  0.61093480702E+02  0.00000000000E+00 0.  1.
      -24    2    1    2    0    0  0.00000000000E+00  0.00000000000E+00 -0.33524113564E+02  0.88662847839E+02  0.82080657872E+02 0.  0.
       11    1    3    3    0    0 -0.40612480967E+02  0.38724560199E+01 -0.11938656188E+02  0.42507658574E+02  0.00000000000E+00 0. -1.
      -12    1    3    3    0    0  0.40612480967E+02 -0.38724560199E+01 -0.21585457377E+02  0.46155189265E+02  0.00000000000E+00 0.  1.
</event>
<event>
 5   0  0.2392100E+01  0.8000630E+02  0.7957747E-01  0.1327548E+00
       -2   -1    0    0    0  501  0.00000000000E+00  0.00000000000E+00  0.41426785580E+01  0.41426785580E+01  0.00000000000E+00 0.  1.
        1   -1    0    0  501    0  0.00000000000E+00  0.00000000000E+00 -0.38628440506E+03  0.38628440506E+03  0.00000000000E+00 0. -1.
      -24    2    1    2    0    0  0.00000000000E+00  0.00000000000E+00 -0.38214172650E+03  0.39042708361E+03  0.80006302805E+02 0.  0.
       11    1    3    3    0    0  0.37899840799E+02 -0.41488396263E+01 -0.13197679155E+03  0.13737352114E+03  0.00000000000E+00 0. -1.
      -12    1    3    3    0    0 -0.37899840799E+02  0.41488396263E+01 -0.25016493495E+03  0.25305356247E+03  0.00000000000E+00 0.  1.
</event>
<event>
 5   0  0.2392100E+01  0.8305932E+02  0.7957747E-01  0.1319543E+00
        3   -1    0    0  501    0  0.00000000000E+00  0.00000000000E+00  0.20912073469E+02  0.20912073469E+02  0.00000000000E+00 0. -1.
       -4   -1    0    0    0  501  0.00000000000E+00  0.00000000000E+00 -0.82474500706E+02  0.82474500706E+02  0.00000000000E+00 0.  1.
      -24    2    1    2    0    0  0.00000000000E+00  0.00000000000E+00 -0.61562427237E+02  0.10338657418E+03  0.83059323813E+02 0.  0.
       11    1    3    3    0    0  0.23479622397E+02 -0.32433394584E+02 -0.17061183203E+02  0.43523576650E+02  0.00000000000E+00 0. -1.
      -12    1    3    3    0    0 -0.23479622397E+02  0.32433394584E+02 -0.44501244034E+02  0.59862997525E+02  0.00000000000E+00 0.  1.
</event>
<event>
 5   0  0.2392100E+01  0.6681726E+02  0.7957747E-01  0.1367451E+00
        3   -1    0    0  501    0  0.00000000000E+00  0.00000000000E+00  0.26351476827E+02  0.26351476827E+02  0.00000000000E+00 0. -1.
       -4   -1    0    0    0  501  0.00000000000E+00  0.00000000000E+00 -0.42355748316E+02  0.42355748316E+02  0.00000000000E+00 0.  1.
      -24    2    1    2    0    0  0.00000000000E+00  0.00000000000E+00 -0.16004271489E+02  0.68707225144E+02  0.66817258856E+02 0.  0.
       11    1    3    3    0    0  0.13862350622E+02 -0.30060149520E+02 -0.33623946212E+01  0.33272857580E+02  0.00000000000E+00 0. -1.
      -12    1    3    3    0    0 -0.13862350622E+02  0.30060149520E+02 -0.12641876868E+02  0.35434367564E+02  0.00000000000E+00 0.  1.
</event>
<event>
 5   0  0.2392100E+01  0.7227236E+02  0.7957747E-01  0.1349776E+00
       -2   -1    0    0    0  501  0.00000000000E+00  0.00000000000E+00  0.23254726505E+02  0.23254726505E+02  0.00000000000E+00 0.  1.
        1   -1    0    0  501    0  0.00000000000E+00  0.00000000000E+00 -0.56153037026E+02  0.56153037026E+02  0.00000000000E+00 0. -1.
      -24    2    1    2    0    0  0.00000000000E+00  0.00000000000E+00 -0.32898310521E+02  0.79407763531E+02  0.72272360372E+02 0.  0.
       11    1    3    3    0    0  0.28225505421E+02 -0.14894220189E+02  0.21744390405E+01  0.31988203082E+02  0.00000000000E+00 0. -1.
      -12    1    3    3    0    0 -0.28225505421E+02  0.14894220189E+02 -0.35072749561E+02  0.47419560448E+02  0.00000000000E+00 0.  1.
</event>
<event>
 5   0  0.2392100E+01  0.8207485E+02  0.7957747E-01  0.1322081E+00
       -2   -1    0    0    0  501  0.00000000000E+00  0.00000000000E+00  0.60881872630E+02  0.60881872630E+02  0.00000000000E+00 0.  1.
        1   -1    0    0  501    0  0.00000000000E+00  0.00000000000E+00 -0.27661272734E+02  0.27661272734E+02  0.00000000000E+00 0. -1.
      -24    2    1    2    0    0  0.00000000000E+00  0.00000000000E+00  0.33220599897E+02  0.88543145364E+02  0.82074845924E+02 0.  0.
       11    1    3    3    0    0 -0.61708895508E+01  0.27568016822E+02 -0.15501187281E+02  0.32223628542E+02  0.00000000000E+00 0. -1.
      -12    1    3    3    0    0  0.61708895508E+01 -0.27568016822E+02  0.48721787177E+02  0.56319516822E+02  0.00000000000E+00 0.  1.
</event>
<event>
 4   0  0.2392100E+01  0.4072747E+02  0.7957747E-01  0.1490577E+00
       -4   -1    0    0    0  501  0.00000000000E+00  0.00000000000E+00  0.70528351065E+01  0.70528351065E+01  0.00000000000E+00 0.  1.
        3   -1    0    0  501    0  0.00000000000E+00  0.00000000000E+00 -0.58796445679E+02  0.58796445679E+02  0.00000000000E+00 0. -1.
       11    1    1    2    0    0  0.90844985507E+01 -0.14800380350E+02 -0.43066690750E+02  0.46436184432E+02  0.00000000000E+00 0. -1.
      -12    1    1    2    0    0 -0.90844985507E+01  0.14800380350E+02 -0.86769198220E+01  0.19413096353E+02  0.00000000000E+00 0.  1.
</event>
<event>
 5   0  0.2392100E+01  0.8177301E+02  0.7957747E-01  0.1322867E+00
       -2   -1    0    0    0  501  0.00000000000E+00  0.00000000000E+00  0.99491226556E+01  0.99491226556E+01  0.00000000000E+00 0.  1.
        1   -1    0    0  501    0  0.00000000000E+00  0.00000000000E+00 -0.16802551846E+03  0.16802551846E+03  0.00000000000E+00 0. -1.
      -24    2    1    2    0    0  0.00000000000E+00  0.00000000000E+00 -0.15807639581E+03  0.17797464112E+03  0.81773014924E+02 0.  0.
       11    1    3    3    0    0  0.30517937209E+02 -0.27186012016E+02 -0.81503211960E+02  0.91176736620E+02  0.00000000000E+00 0. -1.
      -12    1    3    3    0    0 -0.30517937209E+02  0.27186012016E+02 -0.76573183846E+02  0.86797904498E+02  0.00000000000E+00 0.  1.
</event>
<event>
 5   0  0.2392100E+01  0.7994893E+02  0.7957747E-01  0.1327702E+00
        3   -1    0    0  501    0  0.00000000000E+00  0.00000000000E+00  0.33759105865E+02  0.33759105865E+02  0.00000000000E+00 0. -1.
       -4   -1    0    0    0  501  0.00000000000E+00  0.00000000000E+00 -0.47334124114E+02  0.47334124114E+02  0.00000000000E+00 0.  1.
      -24    2    1    2    0    0  0.00000000000E+00  0.00000000000E+00 -0.13575018249E+02  0.81093229980E+02  0.79948926372E+02 0.  0.
       11    1    3    3    0    0 -0.73615090109E+01  0.16134825014E+02  0.29550289756E+02  0.34463662281E+02  0.00000000000E+00 0. -1.
      -12    1    3    3    0    0  0.73615090109E+01 -0.16134825014E+02 -0.43125308005E+02  0.46629567698E+02  0.00000000000E+00 0.  1.
</event>
<event>
 5   0  0.2392100E+01  0.8221544E+02  0.7957747E-01  0.1321716E+00
       -4   -1    0    0    0  501  0.00000000000E+00  0.00000000000E+00  0.14346460093E+02  0.14346460093E+02  0.00000000000E+00 0.  1.
        3   -1    0    0  501    0  0.00000000000E+00  0.00000000000E+00 -0.11778826620E+03  0.11778826620E+03  0.00000000000E+00 0. -1.
      -24    2    1    2    0    0  0.00000000000E+00  0.00000000000E+00 -0.10344180611E+03  0.13213472630E+03  0.82215440410E+02 0.  0.
       11    1    3    3    0    0  0.28681313449E+02 -0.18132465581E+02 -0.89014346579E+02  0.95262573690E+02  0.00000000000E+00 0. -1.
      -12    1    3    3    0    0 -0.28681313449E+02  0.18132465581E+02 -0.14427459531E+02  0.36872152605E+02  0.00000000000E+00 0.  1.
</event>
<event>
 5   0  0.2392100E+01  0.8032224E+02  0.7957747E-01  0.1326701E+00
        1   -1    0    0  501    0  0.00000000000E+00  0.00000000000E+00  0.86241473550E+02  0.86241473550E+02  0.00000000000E+00 0. -1.
       -2   -1    0    0    0  501  0.00000000000E+00  0.00000000000E+00 -0.18702319139E+02  0.18702319139E+02  0.00000000000E+00 0.  1.
      -24    2    1    2    0    0  0.00000000000E+00  0.00000000000E+00  0.67539154411E+02  0.10494379269E+03  0.80322240042E+02 0.  0.
       11    1    3    3    0    0  0.24424996537E+02 -0.31826516145E+02  0.31357622333E+02  0.50919623567E+02  0.00000000000E+00 0. -1.
      -12    1    3    3    0    0 -0.24424996537E+02  0.31826516145E+02  0.36181532078E+02  0.54024169122E+02  0.00000000000E+00 0.  1.
</event>
<event>
 5   0  0.2392100E+01  0.8162821E+02  0.7957747E-01  0.1323246E+00
        1   -1    0    0  501    0  0.00000000000E+00  0.00000000000E+00  0.72559007240E+02  0.72559007240E+02  0.00000000000E+00 0. -1.
       -2   -1    0    0    0  501  0.00000000000E+00  0.00000000000E+00 -0.22957744625E+02  0.22957744625E+02  0.00000000000E+00 0.  1.
      -24    2    1    2    0    0  0.00000000000E+00  0.00000000000E+00  0.49601262615E+02  0.95516751865E+02  0.81628209792E+02 0.  0.
       11    1    3    3    0    0  0.97252219148E+01 -0.28576500000E+02  0.56944355738E+02  0.64450414615E+02  0.00000000000E+00 0. -1.
      -12    1    3    3    0    0 -0.97252219148E+01  0.28576500000E+02 -0.73430931231E+01  0.31066337251E+02  0.00000000000E+00 0.  1.
</event>
<event>
 5   0  0.2392100E+01  0.8942435E+02  0.7957747E-01  0.1304040E+00
       -2   -1    0    0    0  501  0.00000000000E+00  0.00000000000E+00  0.42522114562E+02  0.42522114562E+02  0.00000000000E+00 0.  1.
        1   -1    0    0  501    0  0.00000000000E+00  0.00000000000E+00 -0.47015029752E+02  0.47015029752E+02  0.00000000000E+00 0. -1.
      -24    2    1    2    0    0  0.00000000000E+00  0.00000000000E+00 -0.44929151900E+01  0.89537144314E+02  0.89424347496E+02 0.  0.
       11    1    3    3    0    0 -0.13127322421E+02 -0.23921201195E+02 -0.37711864779E+02  0.46548203034E+02  0.00000000000E+00 0. -1.
      -12    1    3    3    0    0  0.13127322421E+02  0.23921201195E+02  0.33218949589E+02  0.42988941280E+02  0.00000000000E+00 0.  1.
</event>
<event>
 5   0  0.2392100E+01  0.8277642E+02  0.7957747E-01  0.1320268E+00
       -2   -1    0    0    0  501  0.00000000000E+00  0.00000000000E+00  0.45868091568E+01  0.45868091568E+01  0.00000000000E+00 0.  1.
        1   -1    0    0  501    0  0.00000000000E+00  0.00000000000E+00 -0.37345873060E+03  0.37345873060E+03  0.00000000000E+00 0. -1.
      -24    2    1    2    0    0  0.00000000000E+00  0.00000000000E+00 -0.36887192144E+03  0.37804553976E+03  0.82776419956E+02 0.  0.
       11    1    3    3    0    0  0.60731806891E+01 -0.39784539599E+02 -0.22854797731E+03  0.23206436833E+03  0.00000000000E+00 0. -1.
      -12    1    3    3    0    0 -0.60731806891E+01  0.39784539599E+02 -0.14032394413E+03  0.14598117143E+03  0.00000000000E+00 0.  1.
</event>
<event>
 5   0  0.2392100E+01  0.7962580E+02  0.7957747E-01  0.1328574E+00
        3   -1    0    0  501    0  0.00000000000E+00  0.00000000000E+00  0.12459309061E+03  0.12459309061E+03  0.00000000000E+00 0. -1.
       -4   -1    0    0    0  501  0.00000000000E+00  0.00000000000E+00 -0.12721950844E+02  0.12721950844E+02  0.00000000000E+00 0.  1.
      -24    2    1    2    0    0  0.00000000000E+00  0.00000000000E+00  0.11187113977E+03  0.13731504146E+03  0.79625804218E+02 0.  0.
       11    1    3    3    0    0  0.10384997436E+02  0.37229431114E+02  0.39467821414E+02  0.55241177033E+02  0.00000000000E+00 0. -1.
      -12    1    3    3    0    0 -0.10384997436E+02 -0.37229431114E+02  0.72403318353E+02  0.82073864423E+02  0.00000000000E+00 0.  1.
</event>
<event>
 5   0  0.2392100E+01  0.8569788E+02  0.7957747E-01  0.1312932E+00
       -2   -1    0    0    0  501  0.00000000000E+00  0.00000000000E+00  0.17071395277E+02  0.17071395277E+02  0.00000000000E+00 0.  1.
        1   -1    0    0  501    0  0.00000000000E+00  0.00000000000E+00 -0.10755018198E+03  0.10755018198E+03  0.00000000000E+00 0. -1.
      -24    2    1    2    0    0  0.00000000000E+00  0.00000000000E+00 -0.90478786703E+02  0.12462157726E+03  0.85697880224E+02 0.  0.
       11    1    3    3    0    0  0.27707111376E+01  0.17311767469E+02 -0.10209565025E+03  0.10359003781E+03  0.00000000000E+00 0. -1.
      -12    1    3    3    0    0 -0.27707111376E+01 -0.17311767469E+02  0.11616863544E+02  0.21031539452E+02  0.00000000000E+00 0.  1.
</event>
<event>
 5   0  0.2392100E+01  0.8341381E+02  0.7957747E-01  0.1318639E+00
       -4   -1    0    0    0  501  0.00000000000E+00  0.00000000000E+00  0.83203715067E+02  0.83203715067E+02  0.00000000000E+00 0.  1.
        3   -1    0    0  501    0  0.00000000000E+00  0.00000000000E+00 -0.20906110286E+02  0.20906110286E+02  0.00000000000E+00 0. -1.
      -24    2    1    2    0    0  0.00000000000E+00  0.00000000000E+00  0.62297604781E+02  0.10410982535E+03  0.83413812846E+02 0.  0.
       11    1    3    3    0    0 -0.20571652158E+02 -0.17442812322E+01 -0.14080954195E+02  0.24990171279E+02  0.00000000000E+00 0. -1.
      -12    1    3    3    0    0  0.20571652158E+02  0.17442812322E+01  0.76378558975E+02  0.79119654073E+02  0.00000000000E+00 0.  1.
</event>
<event>
 5   0  0.2392100E+01  0.8075813E+02  0.7957747E-01  0.1325540E+00
        1   -1    0    0  501    0  0.00000000000E+00  0.00000000000E+00  0.21819071822E+03  0.21819071822E+03  0.00000000000E+00 0. -1.
       -2   -1    0    0    0  501  0.00000000000E+00  0.00000000000E+00 -0.74726777092E+01  0.74726777092E+01  0.00000000000E+00 0.  1.
      -24    2    1    2    0    0  0.00000000000E+00  0.00000000000E+00  0.21071804051E+03  0.22566339592E+03  0.80758130646E+02 0.  0.
       11    1    3    3    0    0  0.36247511373E+02  0.96171146315E+01  0.63528448974E+02  0.73771504008E+02  0.00000000000E+00 0. -1.
      -12    1    3    3    0    0 -0.36247511373E+02 -0.96171146315E+01  0.14718959153E+03  0.15189189192E+03  0.00000000000E+00 0.  1.
</event>
<event>
 5   0  0.2392100E+01  0.7992228E+02  0.7957747E-01  0.1327774E+00
       -4   -1    0    0    0  501  0.00000000000E+00  0.00000000000E+00  0.11849796767E+03  0.11849796767E+03  0.00000000000E+00 0.  1.
        3   -1    0    0  501    0  0.00000000000E+00  0.00000000000E+00 -0.13476118199E+02  0.13476118199E+02  0.00000000000E+00 0. -1.
      -24    2    1    2    0    0  0.00000000000E+00  0.00000000000E+00  0.10502184947E+03  0.13197408587E+03  0.79922277711E+02 0.  0.
       11    1    3    3    0    0  0.22466177202E+02 -0.13847288690E+02  0.29610643424E+01  0.26556438469E+02  0.00000000000E+00 0. -1.
      -12    1    3    3    0    0 -0.22466177202E+02  0.13847288690E+02  0.10206078513E+03  0.10541764740E+03  0.00000000000E+00 0.  1.
</event>
<event>
 5   0  0.2392100E+01  0.8031376E+02  0.7957747E-01  0.1326724E+00
        1   -1    0    0  501    0  0.00000000000E+00  0.00000000000E+00  0.22834254363E+02  0.22834254363E+02  0.00000000000E+00 0. -1.
       -2   -1    0    0    0  501  0.00000000000E+00  0.00000000000E+00 -0.70620874526E+02  0.70620874526E+02  0.00000000000E+00 0.  1.
      -24    2    1    2    0    0  0.00000000000E+00  0.00000000000E+00 -0.47786620163E+02  0.93455128890E+02  0.80313760024E+02 0.  0.
       11    1    3    3    0    0 -0.95400713223E+01 -0.38546566549E+02 -0.16938347540E+02  0.43171267886E+02  0.00000000000E+00 0. -1.
      -12    1    3    3    0    0  0.95400713223E+01  0.38546566549E+02 -0.30848272623E+02  0.50283861003E+02  0.00000000000E+00 0.  1.
</event>
<event>
 5   0  0.2392100E+01  0.9555008E+02  0.7957747E-01  0.1290435E+00
        1   -1    0    0  501    0  0.00000000000E+00  0.00000000000E+00  0.50642121955E+02  0.50642121955E+02  0.00000000000E+00 0. -1.
       -2   -1    0    0    0  501  0.00000000000E+00  0.00000000000E+00 -0.45070278405E+02  0.45070278405E+02  0.00000000000E+00 0.  1.
      -24    2    1    2    0    0  0.00000000000E+00  0.00000000000E+00  0.55718435503E+01  0.95712400360E+02  0.95550081853E+02 0.  0.
       11    1    3    3    0    0 -0.11914672281E+02 -0.11722211570E+02  0.47617788287E+02  0.50466062072E+02  0.00000000000E+00 0. -1.
      -12    1    3    3    0    0  0.11914672281E+02  0.11722211570E+02 -0.42045944737E+02  0.45246338288E+02  0.00000000000E+00 0.  1.
</event>
<event>
 5   0  0.2392100E+01  0.8065706E+02  0.7957747E-01  0.1325808E+00
        1   -1    0    0  501    0  0.00000000000E+00  0.00000000000E+00  0.10987756711E+02  0.10987756711E+02  0.00000000000E+00 0. -1.
       -2   -1    0    0    0  501  0.00000000000E+00  0.00000000000E+00 -0.14801841397E+03  0.14801841397E+03  0.00000000000E+00 0.  1.
      -24    2    1    2    0    0  0.00000000000E+00  0.00000000000E+00 -0.13703065726E+03  0.15900617068E+03  0.80657059740E+02 0.  0.
       11    1    3    3    0    0  0.92659271719E+01  0.18219435791E+02  0.19322397370E-01  0.20440294035E+02  0.00000000000E+00 0. -1.
      -12    1    3    3    0    0 -0.92659271719E+01 -0.18219435791E+02 -0.13704997966E+03  0.13856587665E+03  0.00000000000E+00 0.  1.
</event>
<event>
 5   0  0.2392100E+01  0.7805264E+02  0.7957747E-01  0.1332886E+00
       -2   -1    0    0    0  501  0.00000000000E+00  0.00000000000E+00  0.44802716585E+01  0.44802716585E+01  0.00000000000E+00 0.  1.
        1   -1    0    0  501    0  0.00000000000E+00  0.00000000000E+00 -0.33994669311E+03  0.33994669311E+03  0.00000000000E+00 0. -1.
      -24    2    1    2    0    0  0.00000000000E+00  0.00000000000E+00 -0.33546642145E+03  0.34442696477E+03  0.78052636972E+02 0.  0.
       11    1    3    3    0    0  0.29118889224E+02 -0.14467793601E+02 -0.72492684273E+02  0.79450714499E+02  0.00000000000E+00 0. -1.
      -12    1    3    3    0    0 -0.29118889224E+02  0.14467793601E+02 -0.26297373718E+03  0.26497625027E+03  0.00000000000E+00 0.  1.
</event>
<event>
 5   0  0.2392100E+01  0.7794049E+02  0.7957747E-01  0.1333197E+00
        1   -1    0    0  501    0  0.00000000000E+00  0.00000000000E+00  0.15055784062E+02  0.15055784062E+02  0.00000000000E+00 0. -1.
       -2   -1    0    0    0  501  0.00000000000E+00  0.00000000000E+00 -0.10087019700E+03  0.10087019700E+03  0.00000000000E+00 0.  1.
      -24    2    1    2    0    0  0.00000000000E+00  0.00000000000E+00 -0.85814412934E+02  0.11592598106E+03  0.77940487662E+02 0.  0.
       11    1    3    3    0    0  0.12650739756E+02 -0.18699262459E+02  0.43380420249E+01  0.22989611600E+02  0.00000000000E+00 0. -1.
      -12    1    3    3    0    0 -0.12650739756E+02  0.18699262459E+02 -0.90152454959E+02  0.92936369458E+02  0.00000000000E+00 0.  1.
</event>
<event>
 5   0  0.2392100E+01  0.8023931E+02  0.7957747E-01  0.1326923E+00
       -4   -1    0    0    0  501  0.00000000000E+00  0.00000000000E+00  0.11011662728E+03  0.11011662728E+03  0.00000000000E+00 0.  1.
        3   -1    0    0  501    0  0.00000000000E+00  0.00000000000E+00 -0.14617110391E+02  0.14617110391E+02  0.00000000000E+00 0. -1.
      -24    2    1    2    0    0  0.00000000000E+00  0.00000000000E+00  0.95499516884E+02  0.12473373767E+03  0.80239314474E+02 0.  0.
       11    1    3    3    0    0 -0.19628839002E+02 -0.22923220240E+02  0.66556208022E+01  0.30904087674E+02  0.00000000000E+00 0. -1.
      -12    1    3    3    0    0  0.19628839002E+02  0.22923220240E+02  0.88843896082E+02  0.93829649993E+02  0.00000000000E+00 0.  1.
</event>
<event>
 5   0  0.2392100E+01  0.8086202E+02  0.7957747E-01  0.1325264E+00
       -4   -1    0    0    0  501  0.00000000000E+00  0.00000000000E+00  0.91865495467E+02  0.91865495467E+02  0.00000000000E+00 0.  1.
        3   -1    0    0  501    0  0.00000000000E+00  0.00000000000E+00 -0.17794130755E+02  0.17794130755E+02  0.00000000000E+00 0. -1.
      -24    2    1    2    0    0  0.00000000000E+00  0.00000000000E+00  0.74071364712E+02  0.10965962622E+03  0.80862021697E+02 0.  0.
       11    1    3    3    0    0 -0.27070679196E+02 -0.21509360681E+02  0.86153234015E+01  0.35632822880E+02  0.00000000000E+00 0. -1.
      -12    1    3    3    0    0  0.27070679196E+02  0.21509360681E+02  0.65456041310E+02  0.74026803342E+02  0.00000000000E+00 0.  1.
</event>
<event>
 5   0  0.2392100E+01  0.8121273E+02  0.7957747E-01  0.1324337E+00
       -2   -1    0    0    0  501  0.00000000000E+00  0.00000000000E+00  0.17290960670E+03  0.17290960670E+03  0.00000000000E+00 0.  1.
        1   -1    0    0  501    0  0.00000000000E+00  0.00000000000E+00 -0.95360622008E+01  0.95360622008E+01  0.00000000000E+00 0. -1.
      -24    2    1    2    0    0  0.00000000000E+00  0.00000000000E+00  0.16337354450E+03  0.18244566890E+03  0.81212727195E+02 0.  0.
       11    1    3    3    0    0 -0.16188601732E+02  0.19806203942E+02  0.10840619220E+02  0.27782648644E+02  0.00000000000E+00 0. -1.
      -12    1    3    3    0    0  0.16188601732E+02 -0.19806203942E+02  0.15253292528E+03  0.15466302026E+03  0.00000000000E+00 0.  1.
</event>
<event>
 5   0  0.2392100E+01  0.7823581E+02  0.7957747E-01  0.1332378E+00
       -2   -1    0    0    0  501  0.00000000000E+00  0.00000000000E+00  0.16991038945E+02  0.16991038945E+02  0.00000000000E+00 0.  1.
        1   -1    0    0  501    0  0.00000000000E+00  0.00000000000E+00 -0.90059854469E+02  0.90059854469E+02  0.00000000000E+00 0. -1.
      -24    2    1    2    0    0  0.00000000000E+00  0.00000000000E+00 -0.73068815524E+02  0.10705089341E+03  0.78235810079E+02 0.  0.
       11    1    3    3    0    0  0.33306294878E+02  0.70100314219E+01 -0.62916937526E+02  0.71533145091E+02  0.00000000000E+00 0. -1.
      -12    1    3    3    0    0 -0.33306294878E+02 -0.70100314219E+01 -0.10151877998E+02  0.35517748323E+02  0.00000000000E+00 0.  1.
</event>
<event>
 5   0  0.2392100E+01  0.8026019E+02  0.7957747E-01  0.1326867E+00
        1   -1    0    0  501    0  0.00000000000E+00  0.00000000000E+00  0.11664229992E+03  0.11664229992E+03  0.00000000000E+00 0. -1.
       -2   -1    0    0    0  501  0.00000000000E+00  0.00000000000E+00 -0.13806521758E+02  0.13806521758E+02  0.00000000000E+00 0.  1.
      -24    2    1    2    0    0  0.00000000000E+00  0.00000000000E+00  0.10283577817E+03  0.13044882168E+03  0.80260188182E+02 0.  0.
       11    1    3    3    0    0  0.36089432649E+01  0.33087727620E+02  0.87855693967E+02  0.93949162599E+02  0.00000000000E+00 0. -1.
      -12    1    3    3    0    0 -0.36089432649E+01 -0.33087727620E+02  0.14980084199E+02  0.36499659083E+02  0.00000000000E+00 0.  1.
</event>
<event>
 5   0  0.2392100E+01  0.8033802E+02  0.7957747E-01  0.1326659E+00
       -2   -1    0    0    0  501  0.00000000000E+00  0.00000000000E+00  0.24910309903E+02  0.24910309903E+02  0.00000000000E+00 0.  1.
        1   -1    0    0  501    0  0.00000000000E+00  0.00000000000E+00 -0.64774353324E+02  0.64774353324E+02  0.00000000000E+00 0. -1.
      -24    2    1    2    0    0  0.00000000000E+00  0.00000000000E+00 -0.39864043421E+02  0.89684663227E+02  0.80338016283E+02 0.  0.
       11    1    3    3    0    0 -0.15629886726E+02  0.98784437703E+01 -0.59741333274E+02  0.62537220212E+02  0.00000000000E+00 0. -1.
      -12    1    3    3    0    0  0.15629886726E+02 -0.98784437703E+01  0.19877289853E+02  0.27147443016E+02  0.00000000000E+00 0.  1.
</event>
<event>
 5   0  0.2392100E+01  0.8334715E+02  0.7957747E-01  0.1318809E+00
        1   -1    0    0  501    0  0.00000000000E+00  0.00000000000E+00  0.35219030237E+02  0.35219030237E+02  0.00000000000E+00 0. -1.
       -2   -1    0    0    0  501  0.00000000000E+00  0.00000000000E+00 -0.49311041035E+02  0.49311041035E+02  0.00000000000E+00 0.  1.
      -24    2    1    2    0    0  0.00000000000E+00  0.00000000000E+00 -0.14092010798E+02  0.84530071272E+02  0.83347154606E+02 0.  0.
       11    1    3    3    0    0 -0.18680215917E+02 -0.36546429788E+02 -0.14366133473E+02  0.43485374414E+02  0.00000000000E+00 0. -1.
      -12    1    3    3    0    0  0.18680215917E+02  0.36546429788E+02  0.27412267486E+00  0.41044696858E+02  0.00000000000E+00 0.  1.
</event>
<event>
 5   0  0.2392100E+01  0.7825238E+02  0.7957747E-01  0.1332332E+00
        1   -1    0    0  501    0  0.00000000000E+00  0.00000000000E+00  0.32071381747E+03  0.32071381747E+03  0.00000000000E+00 0. -1.
       -2   -1    0    0    0  501  0.00000000000E+00  0.00000000000E+00 -0.47732861222E+01  0.47732861222E+01  0.00000000000E+00 0.  1.
      -24    2    1    2    0    0  0.00000000000E+00  0.00000000000E+00  0.31594053135E+03  0.32548710359E+03  0.78252381794E+02 0.  0.
       11    1    3    3    0    0 -0.37931846164E+02 -0.66848367953E+01  0.12934947563E+03  0.13496221264E+03  0.00000000000E+00 0. -1.
      -12    1    3    3    0    0  0.37931846164E+02  0.66848367953E+01  0.18659105572E+03  0.19052489095E+03  0.00000000000E+00 0.  1.
</event>
<event>
 5   0  0.2392100E+01  0.8400792E+02  0.7957747E-01  0.1317135E+00
        1   -1    0    0  501    0  0.00000000000E+00  0.00000000000E+00  0.31590329901E+02  0.31590329901E+02  0.00000000000E+00 0. -1.
       -2   -1    0    0    0  501  0.00000000000E+00  0.00000000000E+00 -0.55850403257E+02  0.55850403257E+02  0.00000000000E+00 0.  1.
      -24    2    1    2    0    0  0.00000000000E+00  0.00000000000E+00 -0.24260073356E+02  0.87440733158E+02  0.84007920198E+02 0.  0.
       11    1    3    3    0    0 -0.37316752348E+02  0.67995224041E+01  0.66505222255E+01  0.38509777415E+02  0.00000000000E+00 0. -1.
      -12    1    3    3    0    0  0.37316752348E+02 -0.67995224041E+01 -0.30910595582E+02  0.48930955743E+02  0.00000000000E+00 0.  1.
</event>
<event>
 5   0  0.2392100E+01  0.8205960E+02  0.7957747E-01  0.1322121E+00
       -2   -1    0    0    0  501  0.00000000000E+00  0.00000000000E+00  0.51498905723E+01  0.51498905723E+01  0.00000000000E+00 0.  1.
        1   -1    0    0  501    0  0.00000000000E+00  0.00000000000E+00 -0.32688934857E+03  0.32688934857E+03  0.00000000000E+00 0. -1.
      -24    2    1    2    0    0  0.00000000000E+00  0.00000000000E+00 -0.32173945800E+03  0.33203923914E+03  0.82059597230E+02 0.  0.
       11    1    3    3    0    0  0.39909956536E+02 -0.87096002213E+01 -0.14531238143E+03  0.15094485737E+03  0.00000000000E+00 0. -1.
      -12    1    3    3    0    0 -0.39909956536E+02  0.87096002213E+01 -0.17642707656E+03  0.18109438178E+03  0.00000000000E+00 0.  1.
</event>
<event>
 5   0  0.2392100E+01  0.8320901E+02  0.7957747E-01  0.1319161E+00
       -2   -1    0    0    0  501  0.00000000000E+00  0.00000000000E+00  0.17635867722E+02  0.17635867722E+02  0.00000000000E+00 0.  1.
        1   -1    0    0  501    0  0.00000000000E+00  0.00000000000E+00 -0.98148559032E+02  0.98148559032E+02  0.00000000000E+00 0. -1.
      -24    2    1    2    0    0  0.00000000000E+00  0.00000000000E+00 -0.80512691310E+02  0.11578442675E+03  0.83209014035E+02 0.  0.
       11    1    3    3    0    0  0.36304646574E+02 -0.39622860045E+01 -0.67988826998E+02  0.77176470960E+02  0.00000000000E+00 0. -1.
      -12    1    3    3    0    0 -0.36304646574E+02  0.39622860045E+01 -0.12523864312E+02  0.38607955794E+02  0.00000000000E+00 0.  1.
</event>
<event>
 5   0  0.2392100E+01  0.8131283E+02  0.7957747E-01  0.1324074E+00
       -4   -1    0    0    0  501  0.00000000000E+00  0.00000000000E+00  0.18512938646E+02  0.18512938646E+02  0.00000000000E+00 0.  1.
        3   -1    0    0  501    0  0.00000000000E+00  0.00000000000E+00 -0.89285884911E+02  0.89285884911E+02  0.00000000000E+00 0. -1.
      -24    2    1    2    0    0  0.00000000000E+00  0.00000000000E+00 -0.70772946266E+02  0.10779882356E+03  0.81312830704E+02 0.  0.
       11    1    3    3    0    0 -0.39567118700E+02  0.80193543611E+01 -0.41755107778E+02  0.58080598758E+02  0.00000000000E+00 0. -1.
      -12    1    3    3    0    0  0.39567118700E+02 -0.80193543611E+01 -0.29017838488E+02  0.49718224798E+02  0.00000000000E+00 0.  1.
</event>
<event>
 5   0  0.2392100E+01  0.7956887E+02  0.7957747E-01  0.1328728E+00
       -4   -1    0    0    0  501  0.00000000000E+00  0.00000000000E+00  0.24838594031E+02  0.24838594031E+02  0.00000000000E+00 0.  1.
        3   -1    0    0  501    0  0.00000000000E+00  0.00000000000E+00 -0.63723468604E+02  0.63723468604E+02  0.00000000000E+00 0. -1.
      -24    2    1    2    0    0  0.00000000000E+00  0.00000000000E+00 -0.38884874573E+02  0.88562062634E+02  0.79568872478E+02 0.  0.
       11    1    3    3    0    0 -0.42305534338E+01  0.10111394557E+02 -0.62009798480E+02  0.62971048822E+02  0.00000000000E+00 0. -1.
      -12    1    3    3    0    0  0.42305534338E+01 -0.10111394557E+02  0.23124923907E+02  0.25591013812E+02  0.00000000000E+00 0.  1.
</event>
<event>
 5   0  0.2392100E+01  0.7988901E+02  0.7957747E-01  0.1327863E+00
        1   -1    0    0  501    0  0.00000000000E+00  0.00000000000E+00  0.25840712303E+02  0.25840712303E+02  0.00000000000E+00 0. -1.
       -2   -1    0    0    0  501  0.00000000000E+00  0.00000000000E+00 -0.61746106530E+02  0.61746106530E+02  0.00000000000E+00 0.  1.
      -24    2    1    2    0    0  0.00000000000E+00  0.00000000000E+00 -0.35905394228E+02  0.87586818833E+02  0.79889007370E+02 0.  0.
       11    1    3    3    0    0  0.14650260806E+02 -0.33108972448E+02  0.54713187863E+00  0.36209578174E+02  0.00000000000E+00 0. -1.
      -12    1    3    3    0    0 -0.14650260806E+02  0.33108972448E+02 -0.36452526106E+02  0.51377240659E+02  0.00000000000E+00 0.  1.
</event>
<event>
 5   0  0.2392100E+01  0.7853450E+02  0.7957747E-01  0.1331553E+00
        3   -1    0    0  501    0  0.00000000000E+00  0.00000000000E+00  0.63749801784E+02  0.63749801784E+02  0.00000000000E+00 0. -1.
       -4   -1    0    0    0  501  0.00000000000E+00  0.00000000000E+00 -0.24187004771E+02  0.24187004771E+02  0.00000000000E+00 0.  1.
      -24    2    1    2    0    0  0.00000000000E+00  0.00000000000E+00  0.39562797013E+02  0.87936806555E+02  0.78534495857E+02 0.  0.
       11    1    3    3    0    0 -0.39705676794E+01  0.27425568688E+02  0.50932813185E+02  0.57983434569E+02  0.00000000000E+00 0. -1.
      -12    1    3    3    0    0  0.39705676794E+01 -0.27425568688E+02 -0.11370016172E+02  0.29953371985E+02  0.00000000000E+00 0.  1.
</event>
<event>
 5   0  0.2392100E+01  0.7830996E+02  0.7957747E-01  0.1332172E+00
        1   -1    0    0  501    0  0.00000000000E+00  0.00000000000E+00  0.24902940829E+01  0.24902940829E+01  0.00000000000E+00 0. -1.
       -2   -1    0    0    0  501  0.00000000000E+00  0.00000000000E+00 -0.61563505239E+03  0.61563505239E+03  0.00000000000E+00 0.  1.
      -24    2    1    2    0    0  0.00000000000E+00  0.00000000000E+00 -0.61314475831E+03  0.61812534647E+03  0.78309956665E+02 0.  0.
       11    1    3    3    0    0 -0.36917481232E+02 -0.77879188506E+01 -0.22395221913E+03  0.22710823093E+03  0.00000000000E+00 0. -1.
      -12    1    3    3    0    0  0.36917481232E+02  0.77879188506E+01 -0.38919253917E+03  0.39101711555E+03  0.00000000000E+00 0.  1.
</event>
<event>
 5   0  0.2392100E+01  0.8012544E+02  0.7957747E-01  0.1327228E+00
        1   -1    0    0  501    0  0.00000000000E+00  0.00000000000E+00  0.12772118712E+02  0.12772118712E+02  0.00000000000E+00 0. -1.
       -2   -1    0    0    0  501  0.00000000000E+00  0.00000000000E+00 -0.12566603979E+03  0.12566603979E+03  0.00000000000E+00 0.  1.
      -24    2    1    2    0    0  0.00000000000E+00  0.00000000000E+00 -0.11289392108E+03  0.13843815850E+03  0.80125441108E+02 0.  0.
       11    1    3    3    0    0 -0.35394536462E+02 -0.18376604926E+02 -0.49856764342E+02  0.63844888367E+02  0.00000000000E+00 0. -1.
      -12    1    3    3    0    0  0.35394536462E+02  0.18376604926E+02 -0.63037156736E+02  0.74593270134E+02  0.00000000000E+00 0.  1.
</event>
<event>
 5   0  0.2392100E+01  0.8353219E+02  0.7957747E-01  0.1318338E+00
       -2   -1    0    0    0  501  0.00000000000E+00  0.00000000000E+00  0.28357161405E+03  0.28357161405E+03  0.00000000000E+00 0.  1.
        1   -1    0    0  501    0  0.00000000000E+00  0.00000000000E+00 -0.61515556561E+01  0.61515556561E+01  0.00000000000E+00 0. -1.
      -24    2    1    2    0    0  0.00000000000E+00  0.00000000000E+00  0.27742005840E+03  0.28972316971E+03  0.83532187002E+02 0.  0.
       11    1    3    3    0    0 -0.39137321394E+01 -0.39742230787E+02  0.96281346202E+02  0.10423463836E+03  0.00000000000E+00 0. -1.
      -12    1    3    3    0    0  0.39137321394E+01  0.39742230787E+02  0.18113871220E+03  0.18548853135E+03  0.00000000000E+00 0.  1.
</event>
<event>
 5   0  0.2392100E+01  0.8063269E+02  0.7957747E-01  0.1325873E+00
        3   -1    0    0  501    0  0.00000000000E+00  0.00000000000E+00  0.91394669446E+01  0.91394669446E+01  0.00000000000E+00 0. -1.
       -4   -1    0    0    0  501  0.00000000000E+00  0.00000000000E+00 -0.17784489985E+03  0.17784489985E+03  0.00000000000E+00 0.  1.
      -24    2    1    2    0    0  0.00000000000E+00  0.00000000000E+00 -0.16870543291E+03  0.18698436679E+03  0.80632687750E+02 0.  0.
       11    1    3    3    0    0  0.15974424633E+02  0.35221027380E+02 -0.57942509586E+02  0.69663745443E+02  0.00000000000E+00 0. -1.
      -12    1    3    3    0    0 -0.15974424633E+02 -0.35221027380E+02 -0.11076292332E+03  0.11732062135E+03  0.00000000000E+00 0.  1.
</event>
<event>
 5   0  0.2392100E+01  0.8290139E+02  0.7957747E-01  0.1319948E+00
        1   -1    0    0  501    0  0.00000000000E+00  0.00000000000E+00  0.43388465304E+02  0.43388465304E+02  0.00000000000E+00 0. -1.
       -2   -1    0    0    0  501  0.00000000000E+00  0.00000000000E+00 -0.39599471015E+02  0.39599471015E+02  0.00000000000E+00 0.  1.
      -24    2    1    2    0    0  0.00000000000E+00  0.00000000000E+00  0.37889942892E+01  0.82987936319E+02  0.82901393817E+02 0.  0.
       11    1    3    3    0    0 -0.10917851225E+01  0.13295686290E+02  0.41180758910E+02  0.43287667679E+02  0.00000000000E+00 0. -1.
      -12    1    3    3    0    0  0.10917851225E+01 -0.13295686290E+02 -0.37391764621E+02  0.39700268640E+02  0.00000000000E+00 0.  1.
</event>
<event>
 5   0  0.2392100E+01  0.8192949E+02  0.7957747E-01  0.1322459E+00
       -2   -1    0    0    0  501  0.00000000000E+00  0.00000000000E+00  0.10460852930E+02  0.10460852930E+02  0.00000000000E+00 0.  1.
        1   -1    0    0  501    0  0.00000000000E+00  0.00000000000E+00 -0.16041812615E+03  0.16041812615E+03  0.00000000000E+00 0. -1.
      -24    2    1    2    0    0  0.00000000000E+00  0.00000000000E+00 -0.14995727322E+03  0.17087897908E+03  0.81929492249E+02 0.  0.
       11    1    3    3    0    0 -0.33507719044E+02 -0.58189349925E+01 -0.12260731513E+03  0.12723671233E+03  0.00000000000E+00 0. -1.
      -12    1    3    3    0    0  0.33507719044E+02  0.58189349925E+01 -0.27349958088E+02  0.43642266753E+02  0.00000000000E+00 0.  1.
</event>
<event>
 5   0  0.2392100E+01  0.7994968E+02  0.7957747E-01  0.1327700E+00
       -2   -1    0    0    0  501  0.00000000000E+00  0.00000000000E+00  0.30937160632E+02  0.30937160632E+02  0.00000000000E+00 0.  1.
        1   -1    0    0  501    0  0.00000000000E+00  0.00000000000E+00 -0.51652702620E+02  0.51652702620E+02  0.00000000000E+00 0. -1.
      -24    2    1    2    0    0  0.00000000000E+00  0.00000000000E+00 -0.20715541988E+02  0.82589863251E+02  0.79949683127E+02 0.  0.
       11    1    3    3    0    0 -0.32063655520E+02 -0.23493246154E+02 -0.59777853143E+01  0.40196324924E+02  0.00000000000E+00 0. -1.
      -12    1    3    3    0    0  0.32063655520E+02  0.23493246154E+02 -0.14737756673E+02  0.42393538327E+02  0.00000000000E+00 0.  1.
</event>
<event>
 5   0  0.2392100E+01  0.8063530E+02  0.7957747E-01  0.1325866E+00
       -2   -1    0    0    0  501  0.00000000000E+00  0.00000000000E+00  0.28426309551E+02  0.28426309551E+02  0.00000000000E+00 0.  1.
        1   -1    0    0  501    0  0.00000000000E+00  0.00000000000E+00 -0.57183398138E+02  0.57183398138E+02  0.00000000000E+00 0. -1.
      -24    2    1    2    0    0  0.00000000000E+00  0.00000000000E+00 -0.28757088587E+02  0.85609707690E+02  0.80635301864E+02 0.  0.
       11    1    3    3    0    0 -0.34937368670E+02 -0.16538087876E+02 -0.22091063690E+01  0.38717027664E+02  0.00000000000E+00 0. -1.
      -12    1    3    3    0    0  0.34937368670E+02  0.16538087876E+02 -0.26547982218E+02  0.46892680026E+02  0.00000000000E+00 0.  1.
</event>
<event>
 5   0  0.2392100E+01  0.7964471E+02  0.7957747E-01  0.1328523E+00
       -2   -1    0    0    0  501  0.00000000000E+00  0.00000000000E+00  0.20920079113E+02  0.20920079113E+02  0.00000000000E+00 0.  1.
        1   -1    0    0  501    0  0.00000000000E+00  0.00000000000E+00 -0.75803729716E+02  0.75803729716E+02  0.00000000000E+00 0. -1.
      -24    2    1    2    0    0  0.00000000000E+00  0.00000000000E+00 -0.54883650603E+02  0.96723808829E+02  0.79644711631E+02 0.  0.
       11    1    3    3    0    0 -0.14541953727E+02  0.81872597553E+01 -0.71352232244E+02  0.73277832164E+02  0.00000000000E+00 0. -1.
      -12    1    3    3    0    0  0.14541953727E+02 -0.81872597553E+01  0.16468581641E+02  0.23445976664E+02  0.00000000000E+00 0.  1.
</event>
<event>
 5   0  0.2392100E+01  0.7997148E+02  0.7957747E-01  0.1327641E+00
       -2   -1    0    0    0  501  0.00000000000E+00  0.00000000000E+00  0.12017530270E+02  0.12017530270E+02  0.00000000000E+00 0.  1.
        1   -1    0    0  501    0  0.00000000000E+00  0.00000000000E+00 -0.13304391827E+03  0.13304391827E+03  0.00000000000E+00 0. -1.
      -24    2    1    2    0    0  0.00000000000E+00  0.00000000000E+00 -0.12102638800E+03  0.14506144854E+03  0.79971477792E+02 0.  0.
       11    1    3    3    0    0  0.13891457374E+02  0.17717871410E+02 -0.12045378229E+03  0.12253982709E+03  0.00000000000E+00 0. -1.
      -12    1    3    3    0    0 -0.13891457374E+02 -0.17717871410E+02 -0.57260570602E+00  0.22521621446E+02  0.00000000000E+00 0.  1.
</event>
<event>
 5   0  0.2392100E+01  0.8023579E+02  0.7957747E-01  0.1326932E+00
       -2   -1    0    0    0  501  0.00000000000E+00  0.00000000000E+00  0.93443420133E+01  0.93443420133E+01  0.00000000000E+00 0.  1.
        1   -1    0    0  501    0  0.00000000000E+00  0.00000000000E+00 -0.17223742193E+03  0.17223742193E+03  0.00000000000E+00 0. -1.
      -24    2    1    2    0    0  0.00000000000E+00  0.00000000000E+00 -0.16289307992E+03  0.18158176395E+03  0.80235786979E+02 0.  0.
       11    1    3    3    0    0 -0.31624641859E+02 -0.42304121738E+00 -0.13730200637E+03  0.14089761492E+03  0.00000000000E+00 0. -1.
      -12    1    3    3    0    0  0.31624641859E+02  0.42304121738E+00 -0.25591073547E+02  0.40684149025E+02  0.00000000000E+00 0.  1.
</event>
<event>
 5   0  0.2392100E+01  0.8051668E+02  0.7957747E-01  0.1326182E+00
       -2   -1    0    0    0  501  0.00000000000E+00  0.00000000000E+00  0.20562762795E+03  0.20562762795E+03  0.00000000000E+00 0.  1.
        1   -1    0    0  501    0  0.00000000000E+00  0.00000000000E+00 -0.78818874721E+01  0.78818874721E+01  0.00000000000E+00 0. -1.
      -24    2    1    2    0    0  0.00000000000E+00  0.00000000000E+00  0.19774574048E+03  0.21350951542E+03  0.80516677146E+02 0.  0.
       11    1    3    3    0    0  0.10863204435E+02  0.34632303890E+02  0.52689274476E+02  0.63980976299E+02  0.00000000000E+00 0. -1.
      -12    1    3    3    0    0 -0.10863204435E+02 -0.34632303890E+02  0.14505646600E+03  0.14952853912E+03  0.00000000000E+00 0.  1.
</event>
<event>
 5   0  0.2392100E+01  0.8427352E+02  0.7957747E-01  0.1316467E+00
        3   -1    0    0  501    0  0.00000000000E+00  0.00000000000E+00  0.29192053394E+02  0.29192053394E+02  0.00000000000E+00 0. -1.
       -4   -1    0    0    0  501  0.00000000000E+00  0.00000000000E+00 -0.60821577770E+02  0.60821577770E+02  0.00000000000E+00 0.  1.
      -24    2    1    2    0    0  0.00000000000E+00  0.00000000000E+00 -0.31629524376E+02  0.90013631164E+02  0.84273524805E+02 0.  0.
       11    1    3    3    0    0 -0.12173156735E+02  0.39343244025E+02 -0.62953569461E+01  0.41661830425E+02  0.00000000000E+00 0. -1.
      -12    1    3    3    0    0  0.12173156735E+02 -0.39343244025E+02 -0.25334167429E+02  0.48351800739E+02  0.00000000000E+00 0.  1.
</event>
<event>
 5   0  0.2392100E+01  0.7867278E+02  0.7957747E-01  0.1331172E+00
       -4   -1    0    0    0  501  0.00000000000E+00  0.00000000000E+00  0.10207713435E+03  0.10207713435E+03  0.00000000000E+00 0.  1.
        3   -1    0    0  501    0  0.00000000000E+00  0.00000000000E+00 -0.15158651488E+02  0.15158651488E+02  0.00000000000E+00 0. -1.
      -24    2    1    2    0    0  0.00000000000E+00  0.00000000000E+00  0.86918482860E+02  0.11723578584E+03  0.78672783209E+02 0.  0.
       11    1    3    3    0    0 -0.71355895706E+01  0.22155378320E+02 -0.37952139501E+01  0.23583491598E+02  0.00000000000E+00 0. -1.
      -12    1    3    3    0    0  0.71355895706E+01 -0.22155378320E+02  0.90713696811E+02  0.93652294238E+02  0.00000000000E+00 0.  1.
</event>
<event>
 5   0  0.2392100E+01  0.7339901E+02  0.7957747E-01  0.1346346E+00
       -4   -1    0    0    0  501  0.00000000000E+00  0.00000000000E+00  0.24352728688E+02  0.24352728688E+02  0.00000000000E+00 0.  1.
        3   -1    0    0  501    0  0.00000000000E+00  0.00000000000E+00 -0.55306063962E+02  0.55306063962E+02  0.00000000000E+00 0. -1.
      -24    2    1    2    0    0  0.00000000000E+00  0.00000000000E+00 -0.30953335274E+02  0.79658792650E+02  0.73399007363E+02 0.  0.
       11    1    3    3    0    0  0.11294479682E+02 -0.11298650086E+02 -0.51334251818E+02  0.53762721051E+02  0.00000000000E+00 0. -1.
      -12    1    3    3    0    0 -0.11294479682E+02  0.11298650086E+02  0.20380916545E+02  0.25896071599E+02  0.00000000000E+00 0.  1.
</event>
<event>
 5   0  0.2392100E+01  0.7811740E+02  0.7957747E-01  0.1332706E+00
        1   -1    0    0  501    0  0.00000000000E+00  0.00000000000E+00  0.59187137307E+01  0.59187137307E+01  0.00000000000E+00 0. -1.
       -2   -1    0    0    0  501  0.00000000000E+00  0.00000000000E+00 -0.25775565385E+03  0.25775565385E+03  0.00000000000E+00 0.  1.
      -24    2    1    2    0    0  0.00000000000E+00  0.00000000000E+00 -0.25183694012E+03  0.26367436758E+03  0.78117396976E+02 0.  0.
       11    1    3    3    0    0 -0.97300797774E+01  0.26018260541E+02 -0.33236851507E+02  0.43316424508E+02  0.00000000000E+00 0. -1.
      -12    1    3    3    0    0  0.97300797774E+01 -0.26018260541E+02 -0.21860008861E+03  0.22035794307E+03  0.00000000000E+00 0.  1.
</event>
<event>
 5   0  0.2392100E+01  0.8121349E+02  0.7957747E-01  0.1324335E+00
        1   -1    0    0  501    0  0.00000000000E+00  0.00000000000E+00  0.18500548216E+02  0.18500548216E+02  0.00000000000E+00 0. -1.
       -2   -1    0    0    0  501  0.00000000000E+00  0.00000000000E+00 -0.89127503846E+02  0.89127503846E+02  0.00000000000E+00 0.  1.
      -24    2    1    2    0    0  0.00000000000E+00  0.00000000000E+00 -0.70626955630E+02  0.10762805206E+03  0.81213488592E+02 0.  0.
       11    1    3    3    0    0 -0.22764604472E+02  0.96255083727E+01  0.73840055201E+01  0.25795371013E+02  0.00000000000E+00 0. -1.
      -12    1    3    3    0    0  0.22764604472E+02 -0.96255083727E+01 -0.78010961150E+02  0.81832681050E+02  0.00000000000E+00 0.  1.
</event>
<event>
 5   0  0.2392100E+01  0.8038617E+02  0.7957747E-01  0.1326530E+00
        3   -1    0    0  501    0  0.00000000000E+00  0.00000000000E+00  0.36842244050E+02  0.36842244050E+02  0.00000000000E+00 0. -1.
       -4   -1    0    0    0  501  0.00000000000E+00  0.00000000000E+00 -0.43848686668E+02  0.43848686668E+02  0.00000000000E+00 0.  1.
      -24    2    1    2    0    0  0.00000000000E+00  0.00000000000E+00 -0.70064426178E+01  0.80690930719E+02  0.80386168350E+02 0.  0.
       11    1    3    3    0    0 -0.13283002846E+02 -0.37669785377E+02 -0.79960276486E+01  0.40735578468E+02  0.00000000000E+00 0. -1.
      -12    1    3    3    0    0  0.13283002846E+02  0.37669785377E+02  0.98958503081E+00  0.39955352251E+02  0.00000000000E+00 0.  1.
</event>
<event>
 5   0  0.2392100E+01  0.7593460E+02  0.7957747E-01  0.1338876E+00
        3   -1    0    0  501    0  0.00000000000E+00  0.00000000000E+00  0.10248661988E+03  0.10248661988E+03  0.00000000000E+00 0. -1.
       -4   -1    0    0    0  501  0.00000000000E+00  0.00000000000E+00 -0.14065407083E+02  0.14065407083E+02  0.00000000000E+00 0.  1.
      -24    2    1    2    0    0  0.00000000000E+00  0.00000000000E+00  0.88421212797E+02  0.11655202696E+03  0.75934604210E+02 0.  0.
       11    1    3    3    0    0  0.23297855502E+01  0.17307771839E+02  0.95955844427E+02  0.97532102132E+02  0.00000000000E+00 0. -1.
      -12    1    3    3    0    0 -0.23297855502E+01 -0.17307771839E+02 -0.75346316297E+01  0.19019924830E+02  0.00000000000E+00 0.  1.
</event>
<event>
 5   0  0.2392100E+01  0.8004103E+02  0.7957747E-01  0.1327455E+00
        1   -1    0    0  501    0  0.00000000000E+00  0.00000000000E+00  0.38888205754E+01  0.38888205754E+01  0.00000000000E+00 0. -1.
       -2   -1    0    0    0  501  0.00000000000E+00  0.00000000000E+00 -0.41185789718E+03  0.41185789718E+03  0.00000000000E+00 0.  1.
      -24    2    1    2    0    0  0.00000000000E+00  0.00000000000E+00 -0.40796907660E+03  0.41574671775E+03  0.80041026098E+02 0.  0.
       11    1    3    3    0    0  0.74273448625E+01 -0.12854421392E+02 -0.10943016005E+02  0.18443188453E+02  0.00000000000E+00 0. -1.
      -12    1    3    3    0    0 -0.74273448625E+01  0.12854421392E+02 -0.39702606060E+03  0.39730352930E+03  0.00000000000E+00 0.  1.
</event>
<event>
 5   0  0.2392100E+01  0.8537004E+02  0.7957747E-01  0.1313739E+00
       -2   -1    0    0    0  501  0.00000000000E+00  0.00000000000E+00  0.22126471241E+02  0.22126471241E+02  0.00000000000E+00 0.  1.
        1   -1    0    0  501    0  0.00000000000E+00  0.00000000000E+00 -0.82345307026E+02  0.82345307026E+02  0.00000000000E+00 0. -1.
      -24    2    1    2    0    0  0.00000000000E+00  0.00000000000E+00 -0.60218835785E+02  0.10447177827E+03  0.85370043170E+02 0.  0.
       11    1    3    3    0    0  0.37121047807E+02 -0.15265535398E+02 -0.47885542559E+02  0.62482269064E+02  0.00000000000E+00 0. -1.
      -12    1    3    3    0    0 -0.37121047807E+02  0.15265535398E+02 -0.12333293227E+02  0.41989509203E+02  0.00000000000E+00 0.  1.
</event>
<event>
 5   0  0.2392100E+01  0.8136524E+02  0.7957747E-01  0.1323936E+00
        1   -1    0    0  501    0  0.00000000000E+00  0.00000000000E+00  0.24056312333E+02  0.24056312333E+02  0.00000000000E+00 0. -1.
       -2   -1    0    0    0  501  0.00000000000E+00  0.00000000000E+00 -0.68800055270E+02  0.68800055270E+02  0.00000000000E+00 0.  1.
      -24    2    1    2    0    0  0.00000000000E+00  0.00000000000E+00 -0.44743742937E+02  0.92856367603E+02  0.81365241181E+02 0.  0.
       11    1    3    3    0    0  0.16120709740E+02 -0.30252056355E+02 -0.47375242205E+02  0.58476300927E+02  0.00000000000E+00 0. -1.
      -12    1    3    3    0    0 -0.16120709740E+02  0.30252056355E+02  0.26314992680E+01  0.34380066675E+02  0.00000000000E+00 0.  1.
</event>
<event>
 5   0  0.2392100E+01  0.8034495E+02  0.7957747E-01  0.1326640E+00
       -2   -1    0    0    0  501  0.00000000000E+00  0.00000000000E+00  0.69468123192E+01  0.69468123192E+01  0.00000000000E+00 0.  1.
        1   -1    0    0  501    0  0.00000000000E+00  0.00000000000E+00 -0.23231199991E+03  0.23231199991E+03  0.00000000000E+00 0. -1.
      -24    2    1    2    0    0  0.00000000000E+00  0.00000000000E+00 -0.22536518759E+03  0.23925881222E+03  0.80344952868E+02 0.  0.
       11    1    3    3    0    0  0.10802285715E+02  0.30024782085E+02 -0.40004210111E+02  0.51171415288E+02  0.00000000000E+00 0. -1.
      -12    1    3    3    0    0 -0.10802285715E+02 -0.30024782085E+02 -0.18536097747E+03  0.18808739694E+03  0.00000000000E+00 0.  1.
</event>
<event>
 5   0  0.2392100E+01  0.8046413E+02  0.7957747E-01  0.1326322E+00
        1   -1    0    0  501    0  0.00000000000E+00  0.00000000000E+00  0.24861735499E+03  0.24861735499E+03  0.00000000000E+00 0. -1.
       -2   -1    0    0    0  501  0.00000000000E+00  0.00000000000E+00 -0.65104833829E+01  0.65104833829E+01  0.00000000000E+00 0.  1.
      -24    2    1    2    0    0  0.00000000000E+00  0.00000000000E+00  0.24210687160E+03  0.25512783837E+03  0.80464132589E+02 0.  0.
       11    1    3    3    0    0 -0.39491406425E+02 -0.47295865558E+01  0.14025621939E+03  0.14578664976E+03  0.00000000000E+00 0. -1.
      -12    1    3    3    0    0  0.39491406425E+02  0.47295865558E+01  0.10185065222E+03  0.10934118861E+03  0.00000000000E+00 0.  1.
</event>
<event>
 5   0  0.2392100E+01  0.8086861E+02  0.7957747E-01  0.1325247E+00
       -4   -1    0    0    0  501  0.00000000000E+00  0.00000000000E+00  0.15645887770E+02  0.15645887770E+02  0.00000000000E+00 0.  1.
        3   -1    0    0  501    0  0.00000000000E+00  0.00000000000E+00 -0.10449602033E+03  0.10449602033E+03  0.00000000000E+00 0. -1.
      -24    2    1    2    0    0  0.00000000000E+00  0.00000000000E+00 -0.88850132560E+02  0.12014190810E+03  0.80868609647E+02 0.  0.
       11    1    3    3    0    0  0.51073277751E+01 -0.25718169544E+02 -0.90153542683E+02  0.93889138349E+02  0.00000000000E+00 0. -1.
      -12    1    3    3    0    0 -0.51073277751E+01  0.25718169544E+02  0.13034101221E+01  0.26252769752E+02  0.00000000000E+00 0.  1.
</event>
<event>
 5   0  0.2392100E+01  0.8032646E+02  0.7957747E-01  0.1326690E+00
       -2   -1    0    0    0  501  0.00000000000E+00  0.00000000000E+00  0.14385244275E+02  0.14385244275E+02  0.00000000000E+00 0.  1.
        1   -1    0    0  501    0  0.00000000000E+00  0.00000000000E+00 -0.11213469392E+03  0.11213469392E+03  0.00000000000E+00 0. -1.
      -24    2    1    2    0    0  0.00000000000E+00  0.00000000000E+00 -0.97749449646E+02  0.12651993820E+03  0.80326458001E+02 0.  0.
       11    1    3    3    0    0 -0.38684233043E+02  0.75234251737E+01 -0.36672934154E+02  0.53832851605E+02  0.00000000000E+00 0. -1.
      -12    1    3    3    0    0  0.38684233043E+02 -0.75234251737E+01 -0.61076515492E+02  0.72687086591E+02  0.00000000000E+00 0.  1.
</event>
<event>
 5   0  0.2392100E+01  0.8053081E+02  0.7957747E-01  0.1326144E+00
       -2   -1    0    0    0  501  0.00000000000E+00  0.00000000000E+00  0.51263476539E+02  0.51263476539E+02  0.00000000000E+00 0.  1.
        1   -1    0    0  501    0  0.00000000000E+00  0.00000000000E+00 -0.31626858450E+02  0.31626858450E+02  0.00000000000E+00 0. -1.
      -24    2    1    2    0    0  0.00000000000E+00  0.00000000000E+00  0.19636618089E+02  0.82890334988E+02  0.80530806928E+02 0.  0.
       11    1    3    3    0    0 -0.35985988387E+02  0.16899131170E+02  0.16387364016E+02  0.43001368512E+02  0.00000000000E+00 0. -1.
      -12    1    3    3    0    0  0.35985988387E+02 -0.16899131170E+02  0.32492540730E+01  0.39888966476E+02  0.00000000000E+00 0.  1.
</event>
<event>
 5   0  0.2392100E+01  0.8084899E+02  0.7957747E-01  0.1325299E+00
        3   -1    0    0  501    0  0.00000000000E+00  0.00000000000E+00  0.19794985075E+02  0.19794985075E+02  0.00000000000E+00 0. -1.
       -4   -1    0    0    0  501  0.00000000000E+00  0.00000000000E+00 -0.82553219879E+02  0.82553219879E+02  0.00000000000E+00 0.  1.
      -24    2    1    2    0    0  0.00000000000E+00  0.00000000000E+00 -0.62758234804E+02  0.10234820495E+03  0.80848988995E+02 0.  0.
       11    1    3    3    0    0 -0.25733557021E+02 -0.14781307981E+02  0.33688200888E+01  0.29867239098E+02  0.00000000000E+00 0. -1.
      -12    1    3    3    0    0  0.25733557021E+02  0.14781307981E+02 -0.66127054893E+02  0.72480965856E+02  0.00000000000E+00 0.  1.
</event>
<event>
 5   0  0.2392100E+01  0.7993805E+02  0.7957747E-01  0.1327731E+00
        3   -1    0    0  501    0  0.00000000000E+00  0.00000000000E+00  0.95505451186E+01  0.95505451186E+01  0.00000000000E+00 0. -1.
       -4   -1    0    0    0  501  0.00000000000E+00  0.00000000000E+00 -0.16727033235E+03  0.16727033235E+03  0.00000000000E+00 0.  1.
      -24    2    1    2    0    0  0.00000000000E+00  0.00000000000E+00 -0.15771978723E+03  0.17682087747E+03  0.79938047415E+02 0.  0.
       11    1    3    3    0    0  0.26546851704E+02 -0.29844414198E+02 -0.75655612917E+02  0.85552300729E+02  0.00000000000E+00 0. -1.
      -12    1    3    3    0    0 -0.26546851704E+02  0.29844414198E+02 -0.82064174315E+02  0.91268576741E+02  0.00000000000E+00 0.  1.
</event>
<event>
 5   0  0.2392100E+01  0.8243708E+02  0.7957747E-01  0.1321143E+00
        1   -1    0    0  501    0  0.00000000000E+00  0.00000000000E+00  0.32111574439E+02  0.32111574439E+02  0.00000000000E+00 0. -1.
       -2   -1    0    0    0  501  0.00000000000E+00  0.00000000000E+00 -0.52908280445E+02  0.52908280445E+02  0.00000000000E+00 0.  1.
      -24    2    1    2    0    0  0.00000000000E+00  0.00000000000E+00 -0.20796706007E+02  0.85019854884E+02  0.82437083547E+02 0.  0.
       11    1    3    3    0    0 -0.10967120981E+02 -0.26264216934E+02  0.20349842804E+02  0.34988611518E+02  0.00000000000E+00 0. -1.
      -12    1    3    3    0    0  0.10967120981E+02  0.26264216934E+02 -0.41146548811E+02  0.50031243367E+02  0.00000000000E+00 0.  1.
</event>
<event>
 5   0  0.2392100E+01  0.7864367E+02  0.7957747E-01  0.1331252E+00
        1   -1    0    0  501    0  0.00000000000E+00  0.00000000000E+00  0.10938435392E+03  0.10938435392E+03  0.00000000000E+00 0. -1.
       -2   -1    0    0    0  501  0.00000000000E+00  0.00000000000E+00 -0.14135538124E+02  0.14135538124E+02  0.00000000000E+00 0.  1.
      -24    2    1    2    0    0  0.00000000000E+00  0.00000000000E+00  0.95248815792E+02  0.12351989204E+03  0.78643669929E+02 0.  0.
       11    1    3    3    0    0  0.21544945098E+01  0.23867374028E+02  0.96589536295E+02  0.99517997927E+02  0.00000000000E+00 0. -1.
      -12    1    3    3    0    0 -0.21544945098E+01 -0.23867374028E+02 -0.13407205033E+01  0.24001894114E+02  0.00000000000E+00 0.  1.
</event>
<event>
 5   0  0.2392100E+01  0.7979346E+02  0.7957747E-01  0.1328121E+00
        1   -1    0    0  501    0  0.00000000000E+00  0.00000000000E+00  0.13341738943E+03  0.13341738943E+03  0.00000000000E+00 0. -1.
       -2   -1    0    0    0  501  0.00000000000E+00  0.00000000000E+00 -0.11930597696E+02  0.11930597696E+02  0.00000000000E+00 0.  1.
      -24    2    1    2    0    0  0.00000000000E+00  0.00000000000E+00  0.12148679173E+03  0.14534798713E+03  0.79793463366E+02 0.  0.
       11    1    3    3    0    0 -0.13343392943E+02 -0.33477093312E+02  0.91922676744E+02  0.98734697101E+02  0.00000000000E+00 0. -1.
      -12    1    3    3    0    0  0.13343392943E+02  0.33477093312E+02  0.29564114990E+02  0.46613290026E+02  0.00000000000E+00 0.  1.
</event>
<event>
 5   0  0.2392100E+01  0.8134845E+02  0.7957747E-01  0.1323980E+00
       -2   -1    0    0    0  501  0.00000000000E+00  0.00000000000E+00  0.73300678671E+01  0.73300678671E+01  0.00000000000E+00 0.  1.
        1   -1    0    0  501    0  0.00000000000E+00  0.00000000000E+00 -0.22569949664E+03  0.22569949664E+03  0.00000000000E+00 0. -1.
      -24    2    1    2    0    0  0.00000000000E+00  0.00000000000E+00 -0.21836942877E+03  0.23302956451E+03  0.81348451195E+02 0.  0.
       11    1    3    3    0    0  0.36520560787E+01 -0.33891760878E+02 -0.45619082211E+02  0.56948131056E+02  0.00000000000E+00 0. -1.
      -12    1    3    3    0    0 -0.36520560787E+01  0.33891760878E+02 -0.17275034656E+03  0.17608143345E+03  0.00000000000E+00 0.  1.
</event>
<event>
 5   0  0.2392100E+01  0.8017746E+02  0.7957747E-01  0.1327088E+00
       -2   -1    0    0    0  501  0.00000000000E+00  0.00000000000E+00  0.20627663163E+02  0.20627663163E+02  0.00000000000E+00 0.  1.
        1   -1    0    0  501    0  0.00000000000E+00  0.00000000000E+00 -0.77910237459E+02  0.77910237459E+02  0.00000000000E+00 0. -1.
      -24    2    1    2    0    0  0.00000000000E+00  0.00000000000E+00 -0.57282574296E+02  0.98537900622E+02  0.80177456564E+02 0.  0.
       11    1    3    3    0    0 -0.91281205056E+01  0.31143462640E+02 -0.57565015856E+02  0.66083045478E+02  0.00000000000E+00 0. -1.
      -12    1    3    3    0    0  0.91281205056E+01 -0.31143462640E+02  0.28244156039E+00  0.32454855144E+02  0.00000000000E+00 0.  1.
</event>
<event>
 5   0  0.2392100E+01  0.7981173E+02  0.7957747E-01  0.1328072E+00
       -4   -1    0    0    0  501  0.00000000000E+00  0.00000000000E+00  0.63991324148E+01  0.63991324148E+01  0.00000000000E+00 0.  1.
        3   -1    0    0  501    0  0.00000000000E+00  0.00000000000E+00 -0.24885843177E+03  0.24885843177E+03  0.00000000000E+00 0. -1.
      -24    2    1    2    0    0  0.00000000000E+00  0.00000000000E+00 -0.24245929936E+03  0.25525756419E+03  0.79811729901E+02 0.  0.
       11    1    3    3    0    0 -0.28683127818E+02  0.19895579513E+02 -0.18307435061E+03  0.18637267438E+03  0.00000000000E+00 0. -1.
      -12    1    3    3    0    0  0.28683127818E+02 -0.19895579513E+02 -0.59384948752E+02  0.68884889808E+02  0.00000000000E+00 0.  1.
</event>
<event>
 5   0  0.2392100E+01  0.8048033E+02  0.7957747E-01  0.1326279E+00
       -2   -1    0    0    0  501  0.00000000000E+00  0.00000000000E+00  0.81373218465E+01  0.81373218465E+01  0.00000000000E+00 0.  1.
        1   -1    0    0  501    0  0.00000000000E+00  0.00000000000E+00 -0.19899309212E+03  0.19899309212E+03  0.00000000000E+00 0. -1.
      -24    2    1    2    0    0  0.00000000000E+00  0.00000000000E+00 -0.19085577027E+03  0.20713041396E+03  0.80480328921E+02 0.  0.
       11    1    3    3    0    0  0.38407034191E+02 -0.11613146776E+02 -0.10327881764E+03  0.11079927629E+03  0.00000000000E+00 0. -1.
      -12    1    3    3    0    0 -0.38407034191E+02  0.11613146776E+02 -0.87576952631E+02  0.96331137674E+02  0.00000000000E+00 0.  1.
</event>
<event>
 5   0  0.2392100E+01  0.7739343E+02  0.7957747E-01  0.1334727E+00
       -4   -1    0    0    0  501  0.00000000000E+00  0.00000000000E+00  0.14379724553E+03  0.14379724553E+03  0.00000000000E+00 0.  1.
        3   -1    0    0  501    0  0.00000000000E+00  0.00000000000E+00 -0.10413521141E+02  0.10413521141E+02  0.00000000000E+00 0. -1.
      -24    2    1    2    0    0  0.00000000000E+00  0.00000000000E+00  0.13338372439E+03  0.15421076667E+03  0.77393427534E+02 0.  0.
       11    1    3    3    0    0 -0.15560311290E+02  0.33558304661E+02  0.44047394279E+02  0.57519179774E+02  0.00000000000E+00 0. -1.
      -12    1    3    3    0    0  0.15560311290E+02 -0.33558304661E+02  0.89336330108E+02  0.96691586895E+02  0.00000000000E+00 0.  1.
</event>
<event>
 5   0  0.2392100E+01  0.7965638E+02  0.7957747E-01  0.1328491E+00
       -2   -1    0    0    0  501  0.00000000000E+00  0.00000000000E+00  0.16055390274E+02  0.16055390274E+02  0.00000000000E+00 0.  1.
        1   -1    0    0  501    0  0.00000000000E+00  0.00000000000E+00 -0.98800756611E+02  0.98800756611E+02  0.00000000000E+00 0. -1.
      -24    2    1    2    0    0  0.00000000000E+00  0.00000000000E+00 -0.82745366337E+02  0.11485614689E+03  0.79656379702E+02 0.  0.
       11    1    3    3    0    0  0.33741890279E+02  0.18124111260E+02 -0.57120801447E+02  0.68773428928E+02  0.00000000000E+00 0. -1.
      -12    1    3    3    0    0 -0.33741890279E+02 -0.18124111260E+02 -0.25624564890E+02  0.46082717957E+02  0.00000000000E+00 0.  1.
</event>
<event>
 5   0  0.2392100E+01  0.6874222E+02  0.7957747E-01  0.1361001E+00
       -2   -1    0    0    0  501  0.00000000000E+00  0.00000000000E+00  0.54785038740E+01  0.54785038740E+01  0.00000000000E+00 0.  1.
        1   -1    0    0  501    0  0.00000000000E+00  0.00000000000E+00 -0.21563790361E+03  0.21563790361E+03  0.00000000000E+00 0. -1.
      -24    2    1    2    0    0  0.00000000000E+00  0.00000000000E+00 -0.21015939973E+03  0.22111640748E+03  0.68742216732E+02 0.  0.
       11    1    3    3    0    0  0.20551429136E+02 -0.26717707200E+02 -0.12669947604E+03  0.13110665256E+03  0.00000000000E+00 0. -1.
      -12    1    3    3    0    0 -0.20551429136E+02  0.26717707200E+02 -0.83459923693E+02  0.90009754918E+02  0.00000000000E+00 0.  1.
</event>
<event>
 5   0  0.2392100E+01  0.7971651E+02  0.7957747E-01  0.1328329E+00
        3   -1    0    0  501    0  0.00000000000E+00  0.00000000000E+00  0.33156812838E+02  0.33156812838E+02  0.00000000000E+00 0. -1.
       -4   -1    0    0    0  501  0.00000000000E+00  0.00000000000E+00 -0.47914148547E+02  0.47914148547E+02  0.00000000000E+00 0.  1.
      -24    2    1    2    0    0  0.00000000000E+00  0.00000000000E+00 -0.14757335709E+02  0.81070961385E+02  0.79716509097E+02 0.  0.
       11    1    3    3    0    0 -0.31727265197E+02 -0.17390110676E+02  0.96280574298E+01  0.37439748879E+02  0.00000000000E+00 0. -1.
      -12    1    3    3    0    0  0.31727265197E+02  0.17390110676E+02 -0.24385393139E+02  0.43631212506E+02  0.00000000000E+00 0.  1.
</event>
<event>
 5   0  0.2392100E+01  0.7968651E+02  0.7957747E-01  0.1328410E+00
       -2   -1    0    0    0  501  0.00000000000E+00  0.00000000000E+00  0.22873205015E+02  0.22873205015E+02  0.00000000000E+00 0.  1.
        1   -1    0    0  501    0  0.00000000000E+00  0.00000000000E+00 -0.69403699947E+02  0.69403699947E+02  0.00000000000E+00 0. -1.
      -24    2    1    2    0    0  0.00000000000E+00  0.00000000000E+00 -0.46530494932E+02  0.92276904962E+02  0.79686512226E+02 0.  0.
       11    1    3    3    0    0 -0.27302137901E+02  0.21242566896E+02 -0.46158266954E+02  0.57682224216E+02  0.00000000000E+00 0. -1.
      -12    1    3    3    0    0  0.27302137901E+02 -0.21242566896E+02 -0.37222797882E+00  0.34594680747E+02  0.00000000000E+00 0.  1.
</event>
<event>
 5   0  0.2392100E+01  0.8232101E+02  0.7957747E-01  0.1321443E+00
       -2   -1    0    0    0  501  0.00000000000E+00  0.00000000000E+00  0.11132991425E+02  0.11132991425E+02  0.00000000000E+00 0.  1.
        1   -1    0    0  501    0  0.00000000000E+00  0.00000000000E+00 -0.15217717050E+03  0.15217717050E+03  0.00000000000E+00 0. -1.
      -24    2    1    2    0    0  0.00000000000E+00  0.00000000000E+00 -0.14104417907E+03  0.16331016192E+03  0.82321009087E+02 0.  0.
       11    1    3    3    0    0  0.18139692741E+02  0.28424885996E+02 -0.23695313583E+02  0.41212746601E+02  0.00000000000E+00 0. -1.
      -12    1    3    3    0    0 -0.18139692741E+02 -0.28424885996E+02 -0.11734886549E+03  0.12209741532E+03  0.00000000000E+00 0.  1.
</event>
<event>
 5   0  0.2392100E+01  0.7727965E+02  0.7957747E-01  0.1335047E+00
        1   -1    0    0  501    0  0.00000000000E+00  0.00000000000E+00  0.50000232807E+01  0.50000232807E+01  0.00000000000E+00 0. -1.
       -2   -1    0    0    0  501  0.00000000000E+00  0.00000000000E+00 -0.29860584161E+03  0.29860584161E+03  0.00000000000E+00 0.  1.
      -24    2    1    2    0    0  0.00000000000E+00  0.00000000000E+00 -0.29360581833E+03  0.30360586489E+03  0.77279652167E+02 0.  0.
       11    1    3    3    0    0  0.29146173184E+02  0.93200701160E+01 -0.54110303002E+02  0.62163397665E+02  0.00000000000E+00 0. -1.
      -12    1    3    3    0    0 -0.29146173184E+02 -0.93200701160E+01 -0.23949551533E+03  0.24144246722E+03  0.00000000000E+00 0.  1.
</event>
<event>
 5   0  0.2392100E+01  0.8002223E+02  0.7957747E-01  0.1327505E+00
        1   -1    0    0  501    0  0.00000000000E+00  0.00000000000E+00  0.20962141696E+02  0.20962141696E+02  0.00000000000E+00 0. -1.
       -2   -1    0    0    0  501  0.00000000000E+00  0.00000000000E+00 -0.76370512998E+02  0.76370512998E+02  0.00000000000E+00 0.  1.
      -24    2    1    2    0    0  0.00000000000E+00  0.00000000000E+00 -0.55408371302E+02  0.97332654694E+02  0.80022234781E+02 0.  0.
       11    1    3    3    0    0 -0.33136993988E+02 -0.15320336115E+02 -0.77878416182E+01  0.37328588860E+02  0.00000000000E+00 0. -1.
      -12    1    3    3    0    0  0.33136993988E+02  0.15320336115E+02 -0.47620529684E+02  0.60004065834E+02  0.00000000000E+00 0.  1.
</event>
<event>
 5   0  0.2392100E+01  0.8139121E+02  0.7957747E-01  0.1323868E+00
        1   -1    0    0  501    0  0.00000000000E+00  0.00000000000E+00  0.65581956487E+01  0.65581956487E+01  0.00000000000E+00 0. -1.
       -2   -1    0    0    0  501  0.00000000000E+00  0.00000000000E+00 -0.25252865093E+03  0.25252865093E+03  0.00000000000E+00 0.  1.
      -24    2    1    2    0    0  0.00000000000E+00  0.00000000000E+00 -0.24597045529E+03  0.25908684658E+03  0.81391210821E+02 0.  0.
       11    1    3    3    0    0  0.18497020049E+02 -0.35671243581E+02 -0.10246514359E+03  0.11006217797E+03  0.00000000000E+00 0. -1.
      -12    1    3    3    0    0 -0.18497020049E+02  0.35671243581E+02 -0.14350531170E+03  0.14902466861E+03  0.00000000000E+00 0.  1.
</event>
<event>
 5   0  0.2392100E+01  0.9280529E+02  0.7957747E-01  0.1296385E+00
        1   -1    0    0  501    0  0.00000000000E+00  0.00000000000E+00  0.33172736454E+03  0.33172736454E+03  0.00000000000E+00 0. -1.
       -2   -1    0    0    0  501  0.00000000000E+00  0.00000000000E+00 -0.64908881947E+01  0.64908881947E+01  0.00000000000E+00 0.  1.
      -24    2    1    2    0    0  0.00000000000E+00  0.00000000000E+00  0.32523647635E+03  0.33821825274E+03  0.92805285073E+02 0.  0.
       11    1    3    3    0    0  0.14464897773E+02 -0.39357846499E+02  0.90193750461E+02  0.99464496032E+02  0.00000000000E+00 0. -1.
      -12    1    3    3    0    0 -0.14464897773E+02  0.39357846499E+02  0.23504272589E+03  0.23875375671E+03  0.00000000000E+00 0.  1.
</event>
<event>
 5   0  0.2392100E+01  0.7806759E+02  0.7957747E-01  0.1332844E+00
       -2   -1    0    0    0  501  0.00000000000E+00  0.00000000000E+00  0.47756387590E+02  0.47756387590E+02  0.00000000000E+00 0.  1.
        1   -1    0    0  501    0  0.00000000000E+00  0.00000000000E+00 -0.31904365893E+02  0.31904365893E+02  0.00000000000E+00 0. -1.
      -24    2    1    2    0    0  0.00000000000E+00  0.00000000000E+00  0.15852021697E+02  0.79660753483E+02  0.78067592851E+02 0.  0.
       11    1    3    3    0    0  0.33363680805E+02  0.18000673476E+02 -0.15631102774E+01  0.37942097414E+02  0.00000000000E+00 0. -1.
      -12    1    3    3    0    0 -0.33363680805E+02 -0.18000673476E+02  0.17415131975E+02  0.41718656068E+02  0.00000000000E+00 0.  1.
</event>
<event>
 5   0  0.2392100E+01  0.8019629E+02  0.7957747E-01  0.1327038E+00
       -2   -1    0    0    0  501  0.00000000000E+00  0.00000000000E+00  0.60572052194E+02  0.60572052194E+02  0.00000000000E+00 0.  1.
        1   -1    0    0  501    0  0.00000000000E+00  0.00000000000E+00 -0.26544605736E+02  0.26544605736E+02  0.00000000000E+00 0. -1.
      -24    2    1    2    0    0  0.00000000000E+00  0.00000000000E+00  0.34027446458E+02  0.87116657930E+02  0.80196290291E+02 0.  0.
       11    1    3    3    0    0 -0.20542090203E+02 -0.28248622615E+02  0.38408428586E+02  0.51915022258E+02  0.00000000000E+00 0. -1.
      -12    1    3    3    0    0  0.20542090203E+02  0.28248622615E+02 -0.43809821284E+01  0.35201635672E+02  0.00000000000E+00 0.  1.
</event>
<event>
 5   0  0.2392100E+01  0.8097928E+02  0.7957747E-01  0.1324954E+00
        3   -1    0    0  501    0  0.00000000000E+00  0.00000000000E+00  0.45042758137E+01  0.45042758137E+01  0.00000000000E+00 0. -1.
       -4   -1    0    0    0  501  0.00000000000E+00  0.00000000000E+00 -0.36396766753E+03  0.36396766753E+03  0.00000000000E+00 0.  1.
      -24    2    1    2    0    0  0.00000000000E+00  0.00000000000E+00 -0.35946339172E+03  0.36847194335E+03  0.80979275419E+02 0.  0.
       11    1    3    3    0    0  0.92377273046E+01  0.38830766233E+02 -0.14878807391E+03  0.15404887195E+03  0.00000000000E+00 0. -1.
      -12    1    3    3    0    0 -0.92377273046E+01 -0.38830766233E+02 -0.21067531781E+03  0.21442307140E+03  0.00000000000E+00 0.  1.
</event>
<event>
 5   0  0.2392100E+01  0.8048151E+02  0.7957747E-01  0.1326276E+00
        1   -1    0    0  501    0  0.00000000000E+00  0.00000000000E+00  0.28624628299E+01  0.28624628299E+01  0.00000000000E+00 0. -1.
       -2   -1    0    0    0  501  0.00000000000E+00  0.00000000000E+00 -0.56570803247E+03  0.56570803247E+03  0.00000000000E+00 0.  1.
      -24    2    1    2    0    0  0.00000000000E+00  0.00000000000E+00 -0.56284556964E+03  0.56857049530E+03  0.80481506336E+02 0.  0.
       11    1    3    3    0    0  0.13215580457E+02  0.66668683983E+01 -0.17068541515E+02  0.22592782265E+02  0.00000000000E+00 0. -1.
      -12    1    3    3    0    0 -0.13215580457E+02 -0.66668683983E+01 -0.54577702812E+03  0.54597771303E+03  0.00000000000E+00 0.  1.
</event>
<event>
 5   0  0.2392100E+01  0.7860671E+02  0.7957747E-01  0.1331354E+00
       -2   -1    0    0    0  501  0.00000000000E+00  0.00000000000E+00  0.36441306625E+02  0.36441306625E+02  0.00000000000E+00 0.  1.
        1   -1    0    0  501    0  0.00000000000E+00  0.00000000000E+00 -0.42390183281E+02  0.42390183281E+02  0.00000000000E+00 0. -1.
      -24    2    1    2    0    0  0.00000000000E+00  0.00000000000E+00 -0.59488766559E+01  0.78831489906E+02  0.78606708794E+02 0.  0.
       11    1    3    3    0    0  0.23004860130E+02 -0.68523017552E+01 -0.34185387901E+02  0.41771023149E+02  0.00000000000E+00 0. -1.
      -12    1    3    3    0    0 -0.23004860130E+02  0.68523017552E+01  0.28236511245E+02  0.37060466757E+02  0.00000000000E+00 0.  1.
</event>
<event>
 5   0  0.2392100E+01  0.8118369E+02  0.7957747E-01  0.1324414E+00
        1   -1    0    0  501    0  0.00000000000E+00  0.00000000000E+00  0.40773017977E+02  0.40773017977E+02  0.00000000000E+00 0. -1.
       -2   -1    0    0    0  501  0.00000000000E+00  0.00000000000E+00 -0.40411477678E+02  0.40411477678E+02  0.00000000000E+00 0.  1.
      -24    2    1    2    0    0  0.00000000000E+00  0.00000000000E+00  0.36154029874E+00  0.81184495655E+02  0.81183690624E+02 0.  0.
       11    1    3    3    0    0 -0.23957432069E+01  0.40505928337E+02 -0.92743300952E+00  0.40587312647E+02  0.00000000000E+00 0. -1.
      -12    1    3    3    0    0  0.23957432069E+01 -0.40505928337E+02  0.12889733083E+01  0.40597183007E+02  0.00000000000E+00 0.  1.
</event>
<event>
 5   0  0.2392100E+01  0.8425867E+02  0.7957747E-01  0.1316504E+00
        1   -1    0    0  501    0  0.00000000000E+00  0.00000000000E+00  0.30009137828E+03  0.30009137828E+03  0.00000000000E+00 0. -1.
       -2   -1    0    0    0  501  0.00000000000E+00  0.00000000000E+00 -0.59144676663E+01  0.59144676663E+01  0.00000000000E+00 0.  1.
      -24    2    1    2    0    0  0.00000000000E+00  0.00000000000E+00  0.29417691062E+03  0.30600584595E+03  0.84258667300E+02 0.  0.
       11    1    3    3    0    0  0.40218896826E+02  0.64068504191E+01  0.18624958831E+03  0.19065024663E+03  0.00000000000E+00 0. -1.
      -12    1    3    3    0    0 -0.40218896826E+02 -0.64068504191E+01  0.10792732231E+03  0.11535559932E+03  0.00000000000E+00 0.  1.
</event>
<event>
 5   0  0.2392100E+01  0.8004523E+02  0.7957747E-01  0.1327443E+00
       -2   -1    0    0    0  501  0.00000000000E+00  0.00000000000E+00  0.38365017605E+01  0.38365017605E+01  0.00000000000E+00 0.  1.
        1   -1    0    0  501    0  0.00000000000E+00  0.00000000000E+00 -0.41751830594E+03  0.41751830594E+03  0.00000000000E+00 0. -1.
      -24    2    1    2    0    0  0.00000000000E+00  0.00000000000E+00 -0.41368180418E+03  0.42135480770E+03  0.80045230108E+02 0.  0.
       11    1    3    3    0    0  0.38325029070E+02 -0.11128297902E+02 -0.19090679449E+03  0.19503346136E+03  0.00000000000E+00 0. -1.
      -12    1    3    3    0    0 -0.38325029070E+02  0.11128297902E+02 -0.22277500969E+03  0.22632134634E+03  0.00000000000E+00 0.  1.
</event>
<event>
 5   0  0.2392100E+01  0.7868080E+02  0.7957747E-01  0.1331150E+00
       -2   -1    0    0    0  501  0.00000000000E+00  0.00000000000E+00  0.15236182280E+02  0.15236182280E+02  0.00000000000E+00 0.  1.
        1   -1    0    0  501    0  0.00000000000E+00  0.00000000000E+00 -0.10157840441E+03  0.10157840441E+03  0.00000000000E+00 0. -1.
      -24    2    1    2    0    0  0.00000000000E+00  0.00000000000E+00 -0.86342222130E+02  0.11681458669E+03  0.78680800333E+02 0.  0.
       11    1    3    3    0    0 -0.36185841126E+02 -0.93499794048E+01 -0.61404692861E+02  0.71884445593E+02  0.00000000000E+00 0. -1.
      -12    1    3    3    0    0  0.36185841126E+02  0.93499794048E+01 -0.24937529269E+02  0.44930141096E+02  0.00000000000E+00 0.  1.
</event>
<event>
 5   0  0.2392100E+01  0.7903304E+02  0.7957747E-01  0.1330185E+00
       -2   -1    0    0    0  501  0.00000000000E+00  0.00000000000E+00  0.24771549117E+02  0.24771549117E+02  0.00000000000E+00 0.  1.
        1   -1    0    0  501    0  0.00000000000E+00  0.00000000000E+00 -0.63038265961E+02  0.63038265961E+02  0.00000000000E+00 0. -1.
      -24    2    1    2    0    0  0.00000000000E+00  0.00000000000E+00 -0.38266716843E+02  0.87809815078E+02  0.79033043761E+02 0.  0.
       11    1    3    3    0    0 -0.35938983441E+02  0.16120159676E+02 -0.15604929212E+02  0.42367250258E+02  0.00000000000E+00 0. -1.
      -12    1    3    3    0    0  0.35938983441E+02 -0.16120159676E+02 -0.22661787632E+02  0.45442564820E+02  0.00000000000E+00 0.  1.
</event>
<event>
 5   0  0.2392100E+01  0.8048714E+02  0.7957747E-01  0.1326261E+00
        1   -1    0    0  501    0  0.00000000000E+00  0.00000000000E+00  0.33577190106E+02  0.33577190106E+02  0.00000000000E+00 0. -1.
       -2   -1    0    0    0  501  0.00000000000E+00  0.00000000000E+00 -0.48233486974E+02  0.48233486974E+02  0.00000000000E+00 0.  1.
      -24    2    1    2    0    0  0.00000000000E+00  0.00000000000E+00 -0.14656296869E+02  0.81810677080E+02  0.80487140876E+02 0.  0.
       11    1    3    3    0    0 -0.16573777689E+02 -0.12713261383E+02  0.27635575008E+02  0.34641624210E+02  0.00000000000E+00 0. -1.
      -12    1    3    3    0    0  0.16573777689E+02  0.12713261383E+02 -0.42291871877E+02  0.47169052870E+02  0.00000000000E+00 0.  1.
</event>
<event>
 5   0  0.2392100E+01  0.8357800E+02  0.7957747E-01  0.1318222E+00
        1   -1    0    0  501    0  0.00000000000E+00  0.00000000000E+00  0.75790357782E+02  0.75790357782E+02  0.00000000000E+00 0. -1.
       -2   -1    0    0    0  501  0.00000000000E+00  0.00000000000E+00 -0.23041460310E+02  0.23041460310E+02  0.00000000000E+00 0.  1.
      -24    2    1    2    0    0  0.00000000000E+00  0.00000000000E+00  0.52748897471E+02  0.98831818092E+02  0.83577999994E+02 0.  0.
       11    1    3    3    0    0 -0.26164193101E+01 -0.41686236954E+02  0.24817967616E+02  0.48585177966E+02  0.00000000000E+00 0. -1.
      -12    1    3    3    0    0  0.26164193101E+01  0.41686236954E+02  0.27930929855E+02  0.50246640126E+02  0.00000000000E+00 0.  1.
</event>
<event>
 5   0  0.2392100E+01  0.8126381E+02  0.7957747E-01  0.1324203E+00
       -4   -1    0    0    0  501  0.00000000000E+00  0.00000000000E+00  0.20528639334E+02  0.20528639334E+02  0.00000000000E+00 0.  1.
        3   -1    0    0  501    0  0.00000000000E+00  0.00000000000E+00 -0.80421867332E+02  0.80421867332E+02  0.00000000000E+00 0. -1.
      -24    2    1    2    0    0  0.00000000000E+00  0.00000000000E+00 -0.59893227998E+02  0.10095050667E+03  0.81263805204E+02 0.  0.
       11    1    3    3    0    0  0.17872152837E+02  0.26977918088E+02 -0.60469991106E+02  0.68584559019E+02  0.00000000000E+00 0. -1.
      -12    1    3    3    0    0 -0.17872152837E+02 -0.26977918088E+02  0.57676310834E+00  0.32365947647E+02  0.00000000000E+00 0.  1.
</event>
<event>
 5   0  0.2392100E+01  0.8016712E+02  0.7957747E-01  0.1327116E+00
       -2   -1    0    0    0  501  0.00000000000E+00  0.00000000000E+00  0.70423116855E+02  0.70423116855E+02  0.00000000000E+00 0.  1.
        1   -1    0    0  501    0  0.00000000000E+00  0.00000000000E+00 -0.22814832181E+02  0.22814832181E+02  0.00000000000E+00 0. -1.
      -24    2    1    2    0    0  0.00000000000E+00  0.00000000000E+00  0.47608284674E+02  0.93237949036E+02  0.80167115270E+02 0.  0.
       11    1    3    3    0    0  0.18737415714E+02 -0.31463070996E+02  0.48470107596E+01  0.36939262275E+02  0.00000000000E+00 0. -1.
      -12    1    3    3    0    0 -0.18737415714E+02  0.31463070996E+02  0.42761273915E+02  0.56298686760E+02  0.00000000000E+00 0.  1.
</event>
<event>
 5   0  0.2392100E+01  0.8111138E+02  0.7957747E-01  0.1324604E+00
       -4   -1    0    0    0  501  0.00000000000E+00  0.00000000000E+00  0.45946932560E+02  0.45946932560E+02  0.00000000000E+00 0.  1.
        3   -1    0    0  501    0  0.00000000000E+00  0.00000000000E+00 -0.35797034230E+02  0.35797034230E+02  0.00000000000E+00 0. -1.
      -24    2    1    2    0    0  0.00000000000E+00  0.00000000000E+00  0.10149898331E+02  0.81743966790E+02  0.81111378181E+02 0.  0.
       11    1    3    3    0    0  0.27500844699E+02  0.29430718656E+02  0.31580488961E+00  0.40281055007E+02  0.00000000000E+00 0. -1.
      -12    1    3    3    0    0 -0.27500844699E+02 -0.29430718656E+02  0.98340934411E+01  0.41462911783E+02  0.00000000000E+00 0.  1.
</event>
<event>
 5   0  0.2392100E+01  0.7992707E+02  0.7957747E-01  0.1327761E+00
        1   -1    0    0  501    0  0.00000000000E+00  0.00000000000E+00  0.13851418063E+02  0.13851418063E+02  0.00000000000E+00 0. -1.
       -2   -1    0    0    0  501  0.00000000000E+00  0.00000000000E+00 -0.11530114099E+03  0.11530114099E+03  0.00000000000E+00 0.  1.
      -24    2    1    2    0    0  0.00000000000E+00  0.00000000000E+00 -0.10144972293E+03  0.12915255905E+03  0.79927074435E+02 0.  0.
       11    1    3    3    0    0 -0.26240184013E+02  0.27715436815E+01 -0.22254253547E+01  0.26479826839E+02  0.00000000000E+00 0. -1.
      -12    1    3    3    0    0  0.26240184013E+02 -0.27715436815E+01 -0.99224297571E+02  0.10267273221E+03  0.00000000000E+00 0.  1.
</event>
<event>
 5   0  0.2392100E+01  0.9501781E+02  0.7957747E-01  0.1291571E+00
        1   -1    0    0  501    0  0.00000000000E+00  0.00000000000E+00  0.71268275071E+02  0.71268275071E+02  0.00000000000E+00 0. -1.
       -2   -1    0    0    0  501  0.00000000000E+00  0.00000000000E+00 -0.31670416739E+02  0.31670416739E+02  0.00000000000E+00 0.  1.
      -24    2    1    2    0    0  0.00000000000E+00  0.00000000000E+00  0.39597858333E+02  0.10293869181E+03  0.95017808262E+02 0.  0.
       11    1    3    3    0    0 -0.35309185744E+02 -0.17754427691E+02  0.48362273052E+02  0.62456927200E+02  0.00000000000E+00 0. -1.
      -12    1    3    3    0    0  0.35309185744E+02  0.17754427691E+02 -0.87644147194E+01  0.40481764610E+02  0.00000000000E+00 0.  1.
</event>
<event>
 5   0  0.2392100E+01  0.8007318E+02  0.7957747E-01  0.1327368E+00
        3   -1    0    0  501    0  0.00000000000E+00  0.00000000000E+00  0.16694957946E+03  0.16694957946E+03  0.00000000000E+00 0. -1.
       -4   -1    0    0    0  501  0.00000000000E+00  0.00000000000E+00 -0.96012735584E+01  0.96012735584E+01  0.00000000000E+00 0.  1.
      -24    2    1    2    0    0  0.00000000000E+00  0.00000000000E+00  0.15734830590E+03  0.17655085302E+03  0.80073181099E+02 0.  0.
       11    1    3    3    0    0  0.39259452387E+02 -0.14067691722E+01  0.95702390198E+02  0.10345158815E+03  0.00000000000E+00 0. -1.
      -12    1    3    3    0    0 -0.39259452387E+02  0.14067691722E+01  0.61645915702E+02  0.73099264866E+02  0.00000000000E+00 0.  1.
</event>
<event>
 5   0  0.2392100E+01  0.8031837E+02  0.7957747E-01  0.1326711E+00
       -2   -1    0    0    0  501  0.00000000000E+00  0.00000000000E+00  0.11195688585E+03  0.11195688585E+03  0.00000000000E+00 0.  1.
        1   -1    0    0  501    0  0.00000000000E+00  0.00000000000E+00 -0.14405188802E+02  0.14405188802E+02  0.00000000000E+00 0. -1.
      -24    2    1    2    0    0  0.00000000000E+00  0.00000000000E+00  0.97551697049E+02  0.12636207465E+03  0.80318368469E+02 0.  0.
       11    1    3    3    0    0  0.28350605601E+02 -0.20546134547E+02  0.17831698605E+02  0.39292110632E+02  0.00000000000E+00 0. -1.
      -12    1    3    3    0    0 -0.28350605601E+02  0.20546134547E+02  0.79719998444E+02  0.87069964021E+02  0.00000000000E+00 0.  1.
</event>
<event>
 5   0  0.2392100E+01  0.7932318E+02  0.7957747E-01  0.1329394E+00
       -2   -1    0    0    0  501  0.00000000000E+00  0.00000000000E+00  0.15680819296E+02  0.15680819296E+02  0.00000000000E+00 0.  1.
        1   -1    0    0  501    0  0.00000000000E+00  0.00000000000E+00 -0.10031629744E+03  0.10031629744E+03  0.00000000000E+00 0. -1.
      -24    2    1    2    0    0  0.00000000000E+00  0.00000000000E+00 -0.84635478141E+02  0.11599711673E+03  0.79323180284E+02 0.  0.
       11    1    3    3    0    0 -0.18460889341E+02  0.17267215192E+02 -0.87010712284E+02  0.90608085776E+02  0.00000000000E+00 0. -1.
      -12    1    3    3    0    0  0.18460889341E+02 -0.17267215192E+02  0.23752341432E+01  0.25389030958E+02  0.00000000000E+00 0.  1.
</event>
<event>
 5   0  0.2392100E+01  0.8093101E+02  0.7957747E-01  0.1325081E+00
        1   -1    0    0  501    0  0.00000000000E+00  0.00000000000E+00  0.47967464755E+03  0.47967464755E+03  0.00000000000E+00 0. -1.
       -2   -1    0    0    0  501  0.00000000000E+00  0.00000000000E+00 -0.34136831061E+01  0.34136831061E+01  0.00000000000E+00 0.  1.
      -24    2    1    2    0    0  0.00000000000E+00  0.00000000000E+00  0.47626096444E+03  0.48308833065E+03  0.80931013604E+02 0.  0.
       11    1    3    3    0    0  0.19591370145E+01  0.40086424557E+02  0.20728812310E+03  0.21113769353E+03  0.00000000000E+00 0. -1.
      -12    1    3    3    0    0 -0.19591370145E+01 -0.40086424557E+02  0.26897284134E+03  0.27195063712E+03  0.00000000000E+00 0.  1.
</event>
<event>
 5   0  0.2392100E+01  0.8278079E+02  0.7957747E-01  0.1320257E+00
       -2   -1    0    0    0  501  0.00000000000E+00  0.00000000000E+00  0.16641368764E+02  0.16641368764E+02  0.00000000000E+00 0.  1.
        1   -1    0    0  501    0  0.00000000000E+00  0.00000000000E+00 -0.10294614434E+03  0.10294614434E+03  0.00000000000E+00 0. -1.
      -24    2    1    2    0    0  0.00000000000E+00  0.00000000000E+00 -0.86304775571E+02  0.11958751310E+03  0.82780788852E+02 0.  0.
       11    1    3    3    0    0  0.24200438218E+02  0.10934065529E+02 -0.89016787638E+02  0.92893506125E+02  0.00000000000E+00 0. -1.
      -12    1    3    3    0    0 -0.24200438218E+02 -0.10934065529E+02  0.27120120661E+01  0.26694006975E+02  0.00000000000E+00 0.  1.
</event>
<event>
 5   0  0.2392100E+01  0.7247799E+02  0.7957747E-01  0.1349145E+00
       -2   -1    0    0    0  501  0.00000000000E+00  0.00000000000E+00  0.69308378941E+01  0.69308378941E+01  0.00000000000E+00 0.  1.
        1   -1    0    0  501    0  0.00000000000E+00  0.00000000000E+00 -0.18948140413E+03  0.18948140413E+03  0.00000000000E+00 0. -1.
      -24    2    1    2    0    0  0.00000000000E+00  0.00000000000E+00 -0.18255056624E+03  0.19641224202E+03  0.72477993790E+02 0.  0.
       11    1    3    3    0    0 -0.20594363088E+02 -0.24969115051E+02 -0.13544678303E+03  0.13926024390E+03  0.00000000000E+00 0. -1.
      -12    1    3    3    0    0  0.20594363088E+02  0.24969115051E+02 -0.47103783205E+02  0.57151998125E+02  0.00000000000E+00 0.  1.
</event>
<event>
 5   0  0.2392100E+01  0.8504505E+02  0.7957747E-01  0.1314543E+00
        3   -1    0    0  501    0  0.00000000000E+00  0.00000000000E+00  0.58681708806E+01  0.58681708806E+01  0.00000000000E+00 0. -1.
       -4   -1    0    0    0  501  0.00000000000E+00  0.00000000000E+00 -0.30813097440E+03  0.30813097440E+03  0.00000000000E+00 0.  1.
      -24    2    1    2    0    0  0.00000000000E+00  0.00000000000E+00 -0.30226280352E+03  0.31399914528E+03  0.85045051858E+02 0.  0.
       11    1    3    3    0    0  0.41224903128E+02  0.90807969666E+01 -0.13222856390E+03  0.13880326589E+03  0.00000000000E+00 0. -1.
      -12    1    3    3    0    0 -0.41224903128E+02 -0.90807969666E+01 -0.17003423962E+03  0.17519587938E+03  0.00000000000E+00 0.  1.
</event>
<event>
 5   0  0.2392100E+01  0.7806986E+02  0.7957747E-01  0.1332838E+00
        1   -1    0    0  501    0  0.00000000000E+00  0.00000000000E+00  0.61457936385E+01  0.61457936385E+01  0.00000000000E+00 0. -1.
       -2   -1    0    0    0  501  0.00000000000E+00  0.00000000000E+00 -0.24792988763E+03  0.24792988763E+03  0.00000000000E+00 0.  1.
      -24    2    1    2    0    0  0.00000000000E+00  0.00000000000E+00 -0.24178409399E+03  0.25407568127E+03  0.78069864255E+02 0.  0.
       11    1    3    3    0    0 -0.22931632130E+02  0.20567821004E+02 -0.42864180488E+02  0.52784779832E+02  0.00000000000E+00 0. -1.
      -12    1    3    3    0    0  0.22931632130E+02 -0.20567821004E+02 -0.19891991350E+03  0.20129090143E+03  0.00000000000E+00 0.  1.
</event>
<event>
 5   0  0.2392100E+01  0.8003642E+02  0.7957747E-01  0.1327467E+00
        1   -1    0    0  501    0  0.00000000000E+00  0.00000000000E+00  0.19624720781E+03  0.19624720781E+03  0.00000000000E+00 0. -1.
       -2   -1    0    0    0  501  0.00000000000E+00  0.00000000000E+00 -0.81604065437E+01  0.81604065437E+01  0.00000000000E+00 0.  1.
      -24    2    1    2    0    0  0.00000000000E+00  0.00000000000E+00  0.18808680126E+03  0.20440761435E+03  0.80036416680E+02 0.  0.
       11    1    3    3    0    0  0.31948072661E+02 -0.20119691976E+02  0.12792280123E+03  0.13337812574E+03  0.00000000000E+00 0. -1.
      -12    1    3    3    0    0 -0.31948072661E+02  0.20119691976E+02  0.60164000031E+02  0.71029488606E+02  0.00000000000E+00 0.  1.
</event>
<event>
 5   0  0.2392100E+01  0.8103319E+02  0.7957747E-01  0.1324811E+00
       -4   -1    0    0    0  501  0.00000000000E+00  0.00000000000E+00  0.70157390881E+02  0.70157390881E+02  0.00000000000E+00 0.  1.
        3   -1    0    0  501    0  0.00000000000E+00  0.00000000000E+00 -0.23398741288E+02  0.23398741288E+02  0.00000000000E+00 0. -1.
      -24    2    1    2    0    0  0.00000000000E+00  0.00000000000E+00  0.46758649592E+02  0.93556132169E+02  0.81033194154E+02 0.  0.
       11    1    3    3    0    0 -0.80388245952E+01 -0.12697117413E+02 -0.20062031414E+02  0.25066403730E+02  0.00000000000E+00 0. -1.
      -12    1    3    3    0    0  0.80388245952E+01  0.12697117413E+02  0.66820681006E+02  0.68489728439E+02  0.00000000000E+00 0.  1.
</event>
<event>
 5   0  0.2392100E+01  0.8391593E+02  0.7957747E-01  0.1317367E+00
        1   -1    0    0  501    0  0.00000000000E+00  0.00000000000E+00  0.14082108552E+03  0.14082108552E+03  0.00000000000E+00 0. -1.
       -2   -1    0    0    0  501  0.00000000000E+00  0.00000000000E+00 -0.12501473271E+02  0.12501473271E+02  0.00000000000E+00 0.  1.
      -24    2    1    2    0    0  0.00000000000E+00  0.00000000000E+00  0.12831961225E+03  0.15332255879E+03  0.83915934997E+02 0.  0.
       11    1    3    3    0    0 -0.59843606314E+01 -0.30495682796E+02  0.11566553297E+03  0.11976775342E+03  0.00000000000E+00 0. -1.
      -12    1    3    3    0    0  0.59843606314E+01  0.30495682796E+02  0.12654079282E+02  0.33554805376E+02  0.00000000000E+00 0.  1.
</event>
<event>
 5   0  0.2392100E+01  0.7939741E+02  0.7957747E-01  0.1329193E+00
       -2   -1    0    0    0  501  0.00000000000E+00  0.00000000000E+00  0.13325320241E+02  0.13325320241E+02  0.00000000000E+00 0.  1.
        1   -1    0    0  501    0  0.00000000000E+00  0.00000000000E+00 -0.11827010877E+03  0.11827010877E+03  0.00000000000E+00 0. -1.
      -24    2    1    2    0    0  0.00000000000E+00  0.00000000000E+00 -0.10494478853E+03  0.13159542901E+03  0.79397407372E+02 0.  0.
       11    1    3    3    0    0  0.20897362455E+02  0.31479581600E+02 -0.32286912802E+02  0.49700186655E+02  0.00000000000E+00 0. -1.
      -12    1    3    3    0    0 -0.20897362455E+02 -0.31479581600E+02 -0.72657875730E+02  0.81895242358E+02  0.00000000000E+00 0.  1.
</event>
<event>
 5   0  0.2392100E+01  0.8028165E+02  0.7957747E-01  0.1326809E+00
        1   -1    0    0  501    0  0.00000000000E+00  0.00000000000E+00  0.15791437168E+02  0.15791437168E+02  0.00000000000E+00 0. -1.
       -2   -1    0    0    0  501  0.00000000000E+00  0.00000000000E+00 -0.10203541632E+03  0.10203541632E+03  0.00000000000E+00 0.  1.
      -24    2    1    2    0    0  0.00000000000E+00  0.00000000000E+00 -0.86243979151E+02  0.11782685349E+03  0.80281650847E+02 0.  0.
       11    1    3    3    0    0 -0.13163733026E+02 -0.16494230500E+02  0.69928709560E+01  0.22231593537E+02  0.00000000000E+00 0. -1.
      -12    1    3    3    0    0  0.13163733026E+02  0.16494230500E+02 -0.93236850107E+02  0.95595259950E+02  0.00000000000E+00 0.  1.
</event>
<event>
 5   0  0.2392100E+01  0.8085949E+02  0.7957747E-01  0.1325271E+00
       -2   -1    0    0    0  501  0.00000000000E+00  0.00000000000E+00  0.11288932345E+02  0.11288932345E+02  0.00000000000E+00 0.  1.
        1   -1    0    0  501    0  0.00000000000E+00  0.00000000000E+00 -0.14479352231E+03  0.14479352231E+03  0.00000000000E+00 0. -1.
      -24    2    1    2    0    0  0.00000000000E+00  0.00000000000E+00 -0.13350458997E+03  0.15608245466E+03  0.80859489915E+02 0.  0.
       11    1    3    3    0    0  0.26707994600E+02  0.23442284513E+02 -0.10396774068E+03  0.10987333061E+03  0.00000000000E+00 0. -1.
      -12    1    3    3    0    0 -0.26707994600E+02 -0.23442284513E+02 -0.29536849289E+02  0.46209124042E+02  0.00000000000E+00 0.  1.
</event>
<event>
 5   0  0.2392100E+01  0.8589140E+02  0.7957747E-01  0.1312458E+00
        1   -1    0    0  501    0  0.00000000000E+00  0.00000000000E+00  0.17258058321E+03  0.17258058321E+03  0.00000000000E+00 0. -1.
       -2   -1    0    0    0  501  0.00000000000E+00  0.00000000000E+00 -0.10686793326E+02  0.10686793326E+02  0.00000000000E+00 0.  1.
      -24    2    1    2    0    0  0.00000000000E+00  0.00000000000E+00  0.16189378988E+03  0.18326737653E+03  0.85891397120E+02 0.  0.
       11    1    3    3    0    0 -0.42131855137E+02  0.11558416575E+00  0.98699885396E+02  0.10731623341E+03  0.00000000000E+00 0. -1.
      -12    1    3    3    0    0  0.42131855137E+02 -0.11558416575E+00  0.63193904487E+02  0.75951143120E+02  0.00000000000E+00 0.  1.
</event>
<event>
 5   0  0.2392100E+01  0.8231894E+02  0.7957747E-01  0.1321448E+00
        3   -1    0    0  501    0  0.00000000000E+00  0.00000000000E+00  0.37553694344E+02  0.37553694344E+02  0.00000000000E+00 0. -1.
       -4   -1    0    0    0  501  0.00000000000E+00  0.00000000000E+00 -0.45111462157E+02  0.45111462157E+02  0.00000000000E+00 0.  1.
      -24    2    1    2    0    0  0.00000000000E+00  0.00000000000E+00 -0.75577678123E+01  0.82665156501E+02  0.82318942201E+02 0.  0.
       11    1    3    3    0    0  0.37600678806E+01 -0.12695613560E+02  0.35356618225E+02  0.37754564843E+02  0.00000000000E+00 0. -1.
      -12    1    3    3    0    0 -0.37600678806E+01  0.12695613560E+02 -0.42914386038E+02  0.44910591658E+02  0.00000000000E+00 0.  1.
</event>
<event>
 5   0  0.2392100E+01  0.7973733E+02  0.7957747E-01  0.1328272E+00
        3   -1    0    0  501    0  0.00000000000E+00  0.00000000000E+00  0.26056651199E+01  0.26056651199E+01  0.00000000000E+00 0. -1.
       -4   -1    0    0    0  501  0.00000000000E+00  0.00000000000E+00 -0.61002094451E+03  0.61002094451E+03  0.00000000000E+00 0.  1.
      -24    2    1    2    0    0  0.00000000000E+00  0.00000000000E+00 -0.60741527940E+03  0.61262660963E+03  0.79737326204E+02 0.  0.
       11    1    3    3    0    0  0.27918305499E+02  0.15737476712E+02 -0.12150241032E+03  0.12565801076E+03  0.00000000000E+00 0. -1.
      -12    1    3    3    0    0 -0.27918305499E+02 -0.15737476712E+02 -0.48591286907E+03  0.48696859887E+03  0.00000000000E+00 0.  1.
</event>
<event>
 5   0  0.2392100E+01  0.8111456E+02  0.7957747E-01  0.1324596E+00
        1   -1    0    0  501    0  0.00000000000E+00  0.00000000000E+00  0.41711639726E+01  0.41711639726E+01  0.00000000000E+00 0. -1.
       -2   -1    0    0    0  501  0.00000000000E+00  0.00000000000E+00 -0.39434870258E+03  0.39434870258E+03  0.00000000000E+00 0.  1.
      -24    2    1    2    0    0  0.00000000000E+00  0.00000000000E+00 -0.39017753861E+03  0.39851986656E+03  0.81114563448E+02 0.  0.
       11    1    3    3    0    0 -0.40415041216E+02 -0.32981105136E+01 -0.19115829456E+03  0.19541173626E+03  0.00000000000E+00 0. -1.
      -12    1    3    3    0    0  0.40415041216E+02  0.32981105136E+01 -0.19901924405E+03  0.20310813030E+03  0.00000000000E+00 0.  1.
</event>
<event>
 5   0  0.2392100E+01  0.7900464E+02  0.7957747E-01  0.1330263E+00
        1   -1    0    0  501    0  0.00000000000E+00  0.00000000000E+00  0.17353061946E+02  0.17353061946E+02  0.00000000000E+00 0. -1.
       -2   -1    0    0    0  501  0.00000000000E+00  0.00000000000E+00 -0.89922657311E+02  0.89922657311E+02  0.00000000000E+00 0.  1.
      -24    2    1    2    0    0  0.00000000000E+00  0.00000000000E+00 -0.72569595365E+02  0.10727571926E+03  0.79004643982E+02 0.  0.
       11    1    3    3    0    0  0.73036689635E+01  0.11699667408E+02  0.13977461791E+02  0.19636579028E+02  0.00000000000E+00 0. -1.
      -12    1    3    3    0    0 -0.73036689635E+01 -0.11699667408E+02 -0.86547057156E+02  0.87639140229E+02  0.00000000000E+00 0.  1.
</event>
<event>
 5   0  0.2392100E+01  0.8121421E+02  0.7957747E-01  0.1324333E+00
        1   -1    0    0  501    0  0.00000000000E+00  0.00000000000E+00  0.53857802959E+02  0.53857802959E+02  0.00000000000E+00 0. -1.
       -2   -1    0    0    0  501  0.00000000000E+00  0.00000000000E+00 -0.30616494804E+02  0.30616494804E+02  0.00000000000E+00 0.  1.
      -24    2    1    2    0    0  0.00000000000E+00  0.00000000000E+00  0.23241308156E+02  0.84474297763E+02  0.81214214136E+02 0.  0.
       11    1    3    3    0    0 -0.33730977690E+02 -0.14903901514E-01  0.35137016962E+02  0.48707176464E+02  0.00000000000E+00 0. -1.
      -12    1    3    3    0    0  0.33730977690E+02  0.14903901514E-01 -0.11895708807E+02  0.35767121300E+02  0.00000000000E+00 0.  1.
</event>
<event>
 5   0  0.2392100E+01  0.7986676E+02  0.7957747E-01  0.1327923E+00
       -2   -1    0    0    0  501  0.00000000000E+00  0.00000000000E+00  0.89648687976E+02  0.89648687976E+02  0.00000000000E+00 0.  1.
        1   -1    0    0  501    0  0.00000000000E+00  0.00000000000E+00 -0.17788046345E+02  0.17788046345E+02  0.00000000000E+00 0. -1.
      -24    2    1    2    0    0  0.00000000000E+00  0.00000000000E+00  0.71860641631E+02  0.10743673432E+03  0.79866764464E+02 0.  0.
       11    1    3    3    0    0 -0.30203010328E+02 -0.20463612578E+02  0.14086096818E+02  0.39107536309E+02  0.00000000000E+00 0. -1.
      -12    1    3    3    0    0  0.30203010328E+02  0.20463612578E+02  0.57774544812E+02  0.68329198011E+02  0.00000000000E+00 0.  1.
</event>
<event>
 5   0  0.2392100E+01  0.8019824E+02  0.7957747E-01  0.1327033E+00
       -2   -1    0    0    0  501  0.00000000000E+00  0.00000000000E+00  0.14705381617E+02  0.14705381617E+02  0.00000000000E+00 0.  1.
        1   -1    0    0  501    0  0.00000000000E+00  0.00000000000E+00 -0.10934359687E+03  0.10934359687E+03  0.00000000000E+00 0. -1.
      -24    2    1    2    0    0  0.00000000000E+00  0.00000000000E+00 -0.94638215250E+02  0.12404897848E+03  0.80198237370E+02 0.  0.
       11    1    3    3    0    0 -0.32567918394E+02  0.43740525888E+01 -0.82866024903E+02  0.89143590503E+02  0.00000000000E+00 0. -1.
      -12    1    3    3    0    0  0.32567918394E+02 -0.43740525888E+01 -0.11772190347E+02  0.34905387981E+02  0.00000000000E+00 0.  1.
</event>
<event>
 5   0  0.2392100E+01  0.8169878E+02  0.7957747E-01  0.1323061E+00
        3   -1    0    0  501    0  0.00000000000E+00  0.00000000000E+00  0.20984673007E+03  0.20984673007E+03  0.00000000000E+00 0. -1.
       -4   -1    0    0    0  501  0.00000000000E+00  0.00000000000E+00 -0.79518633858E+01  0.79518633858E+01  0.00000000000E+00 0.  1.
      -24    2    1    2    0    0  0.00000000000E+00  0.00000000000E+00  0.20189486669E+03  0.21779859346E+03  0.81698776723E+02 0.  0.
       11    1    3    3    0    0  0.19879442331E+02 -0.33930311646E+02  0.71476055055E+02  0.81579928426E+02  0.00000000000E+00 0. -1.
      -12    1    3    3    0    0 -0.19879442331E+02  0.33930311646E+02  0.13041881163E+03  0.13621866503E+03  0.00000000000E+00 0.  1.
</event>
<event>
 5   0  0.2392100E+01  0.8125638E+02  0.7957747E-01  0.1324222E+00
       -4   -1    0    0    0  501  0.00000000000E+00  0.00000000000E+00  0.99702719295E+02  0.99702719295E+02  0.00000000000E+00 0.  1.
        3   -1    0    0  501    0  0.00000000000E+00  0.00000000000E+00 -0.16555716735E+02  0.16555716735E+02  0.00000000000E+00 0. -1.
      -24    2    1    2    0    0  0.00000000000E+00  0.00000000000E+00  0.83147002561E+02  0.11625843603E+03  0.81256383832E+02 0.  0.
       11    1    3    3    0    0  0.15938736968E+02  0.36552421001E+02  0.30442297384E+02  0.50168279691E+02  0.00000000000E+00 0. -1.
      -12    1    3    3    0    0 -0.15938736968E+02 -0.36552421001E+02  0.52704705177E+02  0.66090156339E+02  0.00000000000E+00 0.  1.
</event>
<event>
 5   0  0.2392100E+01  0.8042061E+02  0.7957747E-01  0.1326438E+00
        1   -1    0    0  501    0  0.00000000000E+00  0.00000000000E+00  0.23592648371E+02  0.23592648371E+02  0.00000000000E+00 0. -1.
       -2   -1    0    0    0  501  0.00000000000E+00  0.00000000000E+00 -0.68532738355E+02  0.68532738355E+02  0.00000000000E+00 0.  1.
      -24    2    1    2    0    0  0.00000000000E+00  0.00000000000E+00 -0.44940089984E+02  0.92125386725E+02  0.80420614220E+02 0.  0.
       11    1    3    3    0    0 -0.30408143210E+02  0.10439892921E+02  0.51948473198E+01  0.32567360599E+02  0.00000000000E+00 0. -1.
      -12    1    3    3    0    0  0.30408143210E+02 -0.10439892921E+02 -0.50134937304E+02  0.59558026127E+02  0.00000000000E+00 0.  1.
</event>
<event>
 5   0  0.2392100E+01  0.8111898E+02  0.7957747E-01  0.1324584E+00
        3   -1    0    0  501    0  0.00000000000E+00  0.00000000000E+00  0.46619754945E+02  0.46619754945E+02  0.00000000000E+00 0. -1.
       -4   -1    0    0    0  501  0.00000000000E+00  0.00000000000E+00 -0.35287019548E+02  0.35287019548E+02  0.00000000000E+00 0.  1.
      -24    2    1    2    0    0  0.00000000000E+00  0.00000000000E+00  0.11332735397E+02  0.81906774493E+02  0.81118979384E+02 0.  0.
       11    1    3    3    0    0 -0.27383735560E+02 -0.19154680302E+02  0.28874396167E+02  0.44164482389E+02  0.00000000000E+00 0. -1.
      -12    1    3    3    0    0  0.27383735560E+02  0.19154680302E+02 -0.17541660770E+02  0.37742292104E+02  0.00000000000E+00 0.  1.
</event>
<event>
 5   0  0.2392100E+01  0.7720266E+02  0.7957747E-01  0.1335263E+00
        1   -1    0    0  501    0  0.00000000000E+00  0.00000000000E+00  0.18090753399E+02  0.18090753399E+02  0.00000000000E+00 0. -1.
       -2   -1    0    0    0  501  0.00000000000E+00  0.00000000000E+00 -0.82365981409E+02  0.82365981409E+02  0.00000000000E+00 0.  1.
      -24    2    1    2    0    0  0.00000000000E+00  0.00000000000E+00 -0.64275228010E+02  0.10045673481E+03  0.77202659492E+02 0.  0.
       11    1    3    3    0    0 -0.33587802318E+02  0.16759366545E+02 -0.20423427759E+02  0.42733280157E+02  0.00000000000E+00 0. -1.
      -12    1    3    3    0    0  0.33587802318E+02 -0.16759366545E+02 -0.43851800251E+02  0.57723454651E+02  0.00000000000E+00 0.  1.
</event>
<event>
 5   0  0.2392100E+01  0.7999015E+02  0.7957747E-01  0.1327591E+00
       -2   -1    0    0    0  501  0.00000000000E+00  0.00000000000E+00  0.11546010538E+02  0.11546010538E+02  0.00000000000E+00 0.  1.
        1   -1    0    0  501    0  0.00000000000E+00  0.00000000000E+00 -0.13854186741E+03  0.13854186741E+03  0.00000000000E+00 0. -1.
      -24    2    1    2    0    0  0.00000000000E+00  0.00000000000E+00 -0.12699585688E+03  0.15008787795E+03  0.79990145921E+02 0.  0.
       11    1    3    3    0    0  0.36439460665E+02 -0.10288133113E+02 -0.87667346794E+02  0.95494731113E+02  0.00000000000E+00 0. -1.
      -12    1    3    3    0    0 -0.36439460665E+02  0.10288133113E+02 -0.39328510082E+02  0.54593146838E+02  0.00000000000E+00 0.  1.
</event>
<event>
 5   0  0.2392100E+01  0.8234742E+02  0.7957747E-01  0.1321374E+00
        1   -1    0    0  501    0  0.00000000000E+00  0.00000000000E+00  0.18416114835E+03  0.18416114835E+03  0.00000000000E+00 0. -1.
       -2   -1    0    0    0  501  0.00000000000E+00  0.00000000000E+00 -0.92053857479E+01  0.92053857479E+01  0.00000000000E+00 0.  1.
      -24    2    1    2    0    0  0.00000000000E+00  0.00000000000E+00  0.17495576261E+03  0.19336653410E+03  0.82347420369E+02 0.  0.
       11    1    3    3    0    0  0.23681837161E+02 -0.29086333186E+02  0.12735756410E+03  0.13276593435E+03  0.00000000000E+00 0. -1.
      -12    1    3    3    0    0 -0.23681837161E+02  0.29086333186E+02  0.47598198502E+02  0.60600599751E+02  0.00000000000E+00 0.  1.
</event>
<event>
 5   0  0.2392100E+01  0.8222951E+02  0.7957747E-01  0.1321680E+00
        1   -1    0    0  501    0  0.00000000000E+00  0.00000000000E+00  0.17059280783E+03  0.17059280783E+03  0.00000000000E+00 0. -1.
       -2   -1    0    0    0  501  0.00000000000E+00  0.00000000000E+00 -0.99091109887E+01  0.99091109887E+01  0.00000000000E+00 0.  1.
      -24    2    1    2    0    0  0.00000000000E+00  0.00000000000E+00  0.16068369684E+03  0.18050191882E+03  0.82229509707E+02 0.  0.
       11    1    3    3    0    0  0.36547605788E+02  0.10384908186E+01  0.12162004931E+03  0.12699701708E+03  0.00000000000E+00 0. -1.
      -12    1    3    3    0    0 -0.36547605788E+02 -0.10384908186E+01  0.39063647530E+02  0.53504901742E+02  0.00000000000E+00 0.  1.
</event>
<event>
 5   0  0.2392100E+01  0.7938840E+02  0.7957747E-01  0.1329217E+00
       -2   -1    0    0    0  501  0.00000000000E+00  0.00000000000E+00  0.79179379190E+02  0.79179379190E+02  0.00000000000E+00 0.  1.
        1   -1    0    0  501    0  0.00000000000E+00  0.00000000000E+00 -0.19899491605E+02  0.19899491605E+02  0.00000000000E+00 0. -1.
      -24    2    1    2    0    0  0.00000000000E+00  0.00000000000E+00  0.59279887585E+02  0.99078870794E+02  0.79388396922E+02 0.  0.
       11    1    3    3    0    0  0.17270338800E+02 -0.20298845691E+02 -0.70724583105E+01  0.27574034983E+02  0.00000000000E+00 0. -1.
      -12    1    3    3    0    0 -0.17270338800E+02  0.20298845691E+02  0.66352345895E+02  0.71504835812E+02  0.00000000000E+00 0.  1.
</event>
<event>
 5   0  0.2392100E+01  0.8469662E+02  0.7957747E-01  0.1315409E+00
        1   -1    0    0  501    0  0.00000000000E+00  0.00000000000E+00  0.24698179636E+02  0.24698179636E+02  0.00000000000E+00 0. -1.
       -2   -1    0    0    0  501  0.00000000000E+00  0.00000000000E+00 -0.72611798503E+02  0.72611798503E+02  0.00000000000E+00 0.  1.
      -24    2    1    2    0    0  0.00000000000E+00  0.00000000000E+00 -0.47913618867E+02  0.97309978139E+02  0.84696617243E+02 0.  0.
       11    1    3    3    0    0 -0.85696917703E+01  0.12156144447E+02  0.21598684043E+02  0.26224313475E+02  0.00000000000E+00 0. -1.
      -12    1    3    3    0    0  0.85696917703E+01 -0.12156144447E+02 -0.69512302910E+02  0.71085664664E+02  0.00000000000E+00 0.  1.
</event>
<event>
 5   0  0.2392100E+01  0.8008812E+02  0.7957747E-01  0.1327328E+00
       -4   -1    0    0    0  501  0.00000000000E+00  0.00000000000E+00  0.18951579478E+02  0.18951579478E+02  0.00000000000E+00 0.  1.
        3   -1    0    0  501    0  0.00000000000E+00  0.00000000000E+00 -0.84611782154E+02  0.84611782154E+02  0.00000000000E+00 0. -1.
      -24    2    1    2    0    0  0.00000000000E+00  0.00000000000E+00 -0.65660202675E+02  0.10356336163E+03  0.80088124320E+02 0.  0.
       11    1    3    3    0    0  0.10279170164E+02 -0.24293392951E+02 -0.71789153198E+02  0.76482107693E+02  0.00000000000E+00 0. -1.
      -12    1    3    3    0    0 -0.10279170164E+02  0.24293392951E+02  0.61289505224E+01  0.27081253938E+02  0.00000000000E+00 0.  1.
</event>
<event>
 5   0  0.2392100E+01  0.8155291E+02  0.7957747E-01  0.1323443E+00
       -2   -1    0    0    0  501  0.00000000000E+00  0.00000000000E+00  0.55527326984E+01  0.55527326984E+01  0.00000000000E+00 0.  1.
        1   -1    0    0  501    0  0.00000000000E+00  0.00000000000E+00 -0.29944158488E+03  0.29944158488E+03  0.00000000000E+00 0. -1.
      -24    2    1    2    0    0  0.00000000000E+00  0.00000000000E+00 -0.29388885218E+03  0.30499431758E+03  0.81552905028E+02 0.  0.
       11    1    3    3    0    0 -0.29989926521E+02  0.20253052269E+02 -0.76665667081E+02  0.84777392788E+02  0.00000000000E+00 0. -1.
      -12    1    3    3    0    0  0.29989926521E+02 -0.20253052269E+02 -0.21722318510E+03  0.22021692479E+03  0.00000000000E+00 0.  1.
</event>
<event>
 5   0  0.2392100E+01  0.8058933E+02  0.7957747E-01  0.1325988E+00
       -4   -1    0    0    0  501  0.00000000000E+00  0.00000000000E+00  0.50112531535E+01  0.50112531535E+01  0.00000000000E+00 0.  1.
        3   -1    0    0  501    0  0.00000000000E+00  0.00000000000E+00 -0.32400277120E+03  0.32400277120E+03  0.00000000000E+00 0. -1.
      -24    2    1    2    0    0  0.00000000000E+00  0.00000000000E+00 -0.31899151805E+03  0.32901402436E+03  0.80589327059E+02 0.  0.
       11    1    3    3    0    0  0.19017356115E+02  0.32935610670E+02 -0.21384889963E+03  0.21720443401E+03  0.00000000000E+00 0. -1.
      -12    1    3    3    0    0 -0.19017356115E+02 -0.32935610670E+02 -0.10514261842E+03  0.11180959034E+03  0.00000000000E+00 0.  1.
</event>
<event>
 5   0  0.2392100E+01  0.7868528E+02  0.7957747E-01  0.1331138E+00
        1   -1    0    0  501    0  0.00000000000E+00  0.00000000000E+00  0.25451869922E+02  0.25451869922E+02  0.00000000000E+00 0. -1.
       -2   -1    0    0    0  501  0.00000000000E+00  0.00000000000E+00 -0.60814515458E+02  0.60814515458E+02  0.00000000000E+00 0.  1.
      -24    2    1    2    0    0  0.00000000000E+00  0.00000000000E+00 -0.35362645536E+02  0.86266385379E+02  0.78685275288E+02 0.  0.
       11    1    3    3    0    0  0.31444247451E+02  0.14737931451E+02  0.25906038462E+01  0.34823247257E+02  0.00000000000E+00 0. -1.
      -12    1    3    3    0    0 -0.31444247451E+02 -0.14737931451E+02 -0.37953249382E+02  0.51443138122E+02  0.00000000000E+00 0.  1.
</event>
<event>
 5   0  0.2392100E+01  0.8043416E+02  0.7957747E-01  0.1326402E+00
        1   -1    0    0  501    0  0.00000000000E+00  0.00000000000E+00  0.48890095360E+02  0.48890095360E+02  0.00000000000E+00 0. -1.
       -2   -1    0    0    0  501  0.00000000000E+00  0.00000000000E+00 -0.33082640039E+02  0.33082640039E+02  0.00000000000E+00 0.  1.
      -24    2    1    2    0    0  0.00000000000E+00  0.00000000000E+00  0.15807455321E+02  0.81972735399E+02  0.80434157577E+02 0.  0.
       11    1    3    3    0    0 -0.60510535000E+01 -0.32174532801E+02  0.31708560836E+02  0.45576843240E+02  0.00000000000E+00 0. -1.
      -12    1    3    3    0    0  0.60510535000E+01  0.32174532801E+02 -0.15901105515E+02  0.36395892159E+02  0.00000000000E+00 0.  1.
</event>
<event>
 5   0  0.2392100E+01  0.8460449E+02  0.7957747E-01  0.1315639E+00
       -2   -1    0    0    0  501  0.00000000000E+00  0.00000000000E+00  0.61780685311E+02  0.61780685311E+02  0.00000000000E+00 0.  1.
        1   -1    0    0  501    0  0.00000000000E+00  0.00000000000E+00 -0.28965040708E+02  0.28965040708E+02  0.00000000000E+00 0. -1.
      -24    2    1    2    0    0  0.00000000000E+00  0.00000000000E+00  0.32815644604E+02  0.90745726019E+02  0.84604493143E+02 0.  0.
       11    1    3    3    0    0 -0.40524790480E+02  0.11531786067E+02  0.12360409003E+02  0.43909229600E+02  0.00000000000E+00 0. -1.
      -12    1    3    3    0    0  0.40524790480E+02 -0.11531786067E+02  0.20455235601E+02  0.46836496419E+02  0.00000000000E+00 0.  1.
</event>
<event>
 5   0  0.2392100E+01  0.7663497E+02  0.7957747E-01  0.1336871E+00
        1   -1    0    0  501    0  0.00000000000E+00  0.00000000000E+00  0.42592657055E+02  0.42592657055E+02  0.00000000000E+00 0. -1.
       -2   -1    0    0    0  501  0.00000000000E+00  0.00000000000E+00 -0.34471428904E+02  0.34471428904E+02  0.00000000000E+00 0.  1.
      -24    2    1    2    0    0  0.00000000000E+00  0.00000000000E+00  0.81212281510E+01  0.77064085959E+02  0.76634972422E+02 0.  0.
       11    1    3    3    0    0 -0.35273467795E+02 -0.29312741909E+01  0.18819986338E+02  0.40087426762E+02  0.00000000000E+00 0. -1.
      -12    1    3    3    0    0  0.35273467795E+02  0.29312741909E+01 -0.10698758187E+02  0.36976659197E+02  0.00000000000E+00 0.  1.
</event>
<event>
 5   0  0.2392100E+01  0.7897889E+02  0.7957747E-01  0.1330333E+00
        1   -1    0    0  501    0  0.00000000000E+00  0.00000000000E+00  0.77499307267E+02  0.77499307267E+02  0.00000000000E+00 0. -1.
       -2   -1    0    0    0  501  0.00000000000E+00  0.00000000000E+00 -0.20121678060E+02  0.20121678060E+02  0.00000000000E+00 0.  1.
      -24    2    1    2    0    0  0.00000000000E+00  0.00000000000E+00  0.57377629208E+02  0.97620985327E+02  0.78978886056E+02 0.  0.
       11    1    3    3    0    0 -0.33494915265E+02 -0.20805534462E+02  0.26027310057E+02  0.47246168963E+02  0.00000000000E+00 0. -1.
      -12    1    3    3    0    0  0.33494915265E+02  0.20805534462E+02  0.31350319151E+02  0.50374816364E+02  0.00000000000E+00 0.  1.
</event>
<event>
 4   0  0.2392100E+01  0.4227586E+02  0.7957747E-01  0.1480529E+00
        1   -1    0    0  501    0  0.00000000000E+00  0.00000000000E+00  0.49975375697E+02  0.49975375697E+02  0.00000000000E+00 0. -1.
       -2   -1    0    0    0  501  0.00000000000E+00  0.00000000000E+00 -0.89406448087E+01  0.89406448087E+01  0.00000000000E+00 0.  1.
       11    1    1    2    0    0  0.58098280755E+01 -0.14802216393E+02  0.39925710317E+02  0.42975831076E+02  0.00000000000E+00 0. -1.
      -12    1    1    2    0    0 -0.58098280755E+01  0.14802216393E+02  0.11090205715E+01  0.15940189429E+02  0.00000000000E+00 0.  1.
</event>
<event>
 5   0  0.2392100E+01  0.8678819E+02  0.7957747E-01  0.1310278E+00
       -2   -1    0    0    0  501  0.00000000000E+00  0.00000000000E+00  0.32932686468E+02  0.32932686468E+02  0.00000000000E+00 0.  1.
        1   -1    0    0  501    0  0.00000000000E+00  0.00000000000E+00 -0.57178682968E+02  0.57178682968E+02  0.00000000000E+00 0. -1.
      -24    2    1    2    0    0  0.00000000000E+00  0.00000000000E+00 -0.24245996499E+02  0.90111369436E+02  0.86788193640E+02 0.  0.
       11    1    3    3    0    0  0.22428881275E+02  0.20911797541E+02 -0.44001896919E+02  0.53633244579E+02  0.00000000000E+00 0. -1.
      -12    1    3    3    0    0 -0.22428881275E+02 -0.20911797541E+02  0.19755900419E+02  0.36478124856E+02  0.00000000000E+00 0.  1.
</event>
<event>
 5   0  0.2392100E+01  0.7994061E+02  0.7957747E-01  0.1327725E+00
        3   -1    0    0  501    0  0.00000000000E+00  0.00000000000E+00  0.33581284649E+02  0.33581284649E+02  0.00000000000E+00 0. -1.
       -4   -1    0    0    0  501  0.00000000000E+00  0.00000000000E+00 -0.47574868230E+02  0.47574868230E+02  0.00000000000E+00 0.  1.
      -24    2    1    2    0    0  0.00000000000E+00  0.00000000000E+00 -0.13993583581E+02  0.81156152879E+02  0.79940607758E+02 0.  0.
       11    1    3    3    0    0  0.58989448745E+01 -0.25004496347E+02  0.24089108854E+02  0.35218000420E+02  0.00000000000E+00 0. -1.
      -12    1    3    3    0    0 -0.58989448745E+01  0.25004496347E+02 -0.38082692435E+02  0.45938152459E+02  0.00000000000E+00 0.  1.
</event>
<event>
 5   0  0.2392100E+01  0.7984810E+02  0.7957747E-01  0.1327974E+00
        1   -1    0    0  501    0  0.00000000000E+00  0.00000000000E+00  0.49237970389E+02  0.49237970389E+02  0.00000000000E+00 0. -1.
       -2   -1    0    0    0  501  0.00000000000E+00  0.00000000000E+00 -0.32371959542E+02  0.32371959542E+02  0.00000000000E+00 0.  1.
      -24    2    1    2    0    0  0.00000000000E+00  0.00000000000E+00  0.16866010847E+02  0.81609929932E+02  0.79848095416E+02 0.  0.
       11    1    3    3    0    0 -0.32183540421E+02  0.21732801468E+02 -0.10361177976E+01  0.38848017630E+02  0.00000000000E+00 0. -1.
      -12    1    3    3    0    0  0.32183540421E+02 -0.21732801468E+02  0.17902128645E+02  0.42761912302E+02  0.00000000000E+00 0.  1.
</event>
<event>
 5   0  0.2392100E+01  0.8359376E+02  0.7957747E-01  0.1318182E+00
        3   -1    0    0  501    0  0.00000000000E+00  0.00000000000E+00  0.32628541999E+02  0.32628541999E+02  0.00000000000E+00 0. -1.
       -4   -1    0    0    0  501  0.00000000000E+00  0.00000000000E+00 -0.53541440825E+02  0.53541440825E+02  0.00000000000E+00 0.  1.
      -24    2    1    2    0    0  0.00000000000E+00  0.00000000000E+00 -0.20912898826E+02  0.86169982824E+02  0.83593759352E+02 0.  0.
       11    1    3    3    0    0 -0.78660934440E+01 -0.40936214035E+02 -0.73077919573E+01  0.42320832564E+02  0.00000000000E+00 0. -1.
      -12    1    3    3    0    0  0.78660934440E+01  0.40936214035E+02 -0.13605106869E+02  0.43849150260E+02  0.00000000000E+00 0.  1.
</event>
<event>
 5   0  0.2392100E+01  0.9046632E+02  0.7957747E-01  0.1301641E+00
       -2   -1    0    0    0  501  0.00000000000E+00  0.00000000000E+00  0.49902565624E+03  0.49902565624E+03  0.00000000000E+00 0.  1.
        1   -1    0    0  501    0  0.00000000000E+00  0.00000000000E+00 -0.41000676250E+01  0.41000676250E+01  0.00000000000E+00 0. -1.
      -24    2    1    2    0    0  0.00000000000E+00  0.00000000000E+00  0.49492558862E+03  0.50312572387E+03  0.90466323839E+02 0.  0.
       11    1    3    3    0    0  0.43705217930E+02 -0.11143516533E+02  0.26649805869E+03  0.27028788230E+03  0.00000000000E+00 0. -1.
      -12    1    3    3    0    0 -0.43705217930E+02  0.11143516533E+02  0.22842752993E+03  0.23283784157E+03  0.00000000000E+00 0.  1.
</event>
<event>
 5   0  0.2392100E+01  0.8281367E+02  0.7957747E-01  0.1320173E+00
       -2   -1    0    0    0  501  0.00000000000E+00  0.00000000000E+00  0.15071045837E+02  0.15071045837E+02  0.00000000000E+00 0.  1.
        1   -1    0    0  501    0  0.00000000000E+00  0.00000000000E+00 -0.11376290974E+03  0.11376290974E+03  0.00000000000E+00 0. -1.
      -24    2    1    2    0    0  0.00000000000E+00  0.00000000000E+00 -0.98691863908E+02  0.12883395558E+03  0.82813671027E+02 0.  0.
       11    1    3    3    0    0  0.33621240708E+02 -0.49515130705E+01 -0.86148251918E+02  0.92608998574E+02  0.00000000000E+00 0. -1.
      -12    1    3    3    0    0 -0.33621240708E+02  0.49515130705E+01 -0.12543611991E+02  0.36224957007E+02  0.00000000000E+00 0.  1.
</event>
<event>
 5   0  0.2392100E+01  0.8116290E+02  0.7957747E-01  0.1324469E+00
        3   -1    0    0  501    0  0.00000000000E+00  0.00000000000E+00  0.53240615409E+02  0.53240615409E+02  0.00000000000E+00 0. -1.
       -4   -1    0    0    0  501  0.00000000000E+00  0.00000000000E+00 -0.30932291715E+02  0.30932291715E+02  0.00000000000E+00 0.  1.
      -24    2    1    2    0    0  0.00000000000E+00  0.00000000000E+00  0.22308323694E+02  0.84172907124E+02  0.81162904012E+02 0.  0.
       11    1    3    3    0    0 -0.27393748350E+02  0.41395479536E+00  0.42202122137E+02  0.50315086407E+02  0.00000000000E+00 0. -1.
      -12    1    3    3    0    0  0.27393748350E+02 -0.41395479536E+00 -0.19893798444E+02  0.33857820718E+02  0.00000000000E+00 0.  1.
</event>
<event>
 5   0  0.2392100E+01  0.7880805E+02  0.7957747E-01  0.1330801E+00
        3   -1    0    0  501    0  0.00000000000E+00  0.00000000000E+00  0.94771436345E+01  0.94771436345E+01  0.00000000000E+00 0. -1.
       -4   -1    0    0    0  501  0.00000000000E+00  0.00000000000E+00 -0.16383386533E+03  0.16383386533E+03  0.00000000000E+00 0.  1.
      -24    2    1    2    0    0  0.00000000000E+00  0.00000000000E+00 -0.15435672170E+03  0.17331100897E+03  0.78808047152E+02 0.  0.
       11    1    3    3    0    0 -0.45459707722E+01  0.10284310024E+02  0.58741045602E+01  0.12686133663E+02  0.00000000000E+00 0. -1.
      -12    1    3    3    0    0  0.45459707722E+01 -0.10284310024E+02 -0.16023082626E+03  0.16062487530E+03  0.00000000000E+00 0.  1.
</event>
<event>
 5   0  0.2392100E+01  0.8005379E+02  0.7957747E-01  0.1327420E+00
       -2   -1    0    0    0  501  0.00000000000E+00  0.00000000000E+00  0.12817195539E+03  0.12817195539E+03  0.00000000000E+00 0.  1.
        1   -1    0    0  501    0  0.00000000000E+00  0.00000000000E+00 -0.12500022325E+02  0.12500022325E+02  0.00000000000E+00 0. -1.
      -24    2    1    2    0    0  0.00000000000E+00  0.00000000000E+00  0.11567193307E+03  0.14067197772E+03  0.80053789514E+02 0.  0.
       11    1    3    3    0    0  0.13463571060E+02 -0.33431670750E+02  0.27237758733E+02  0.45175655564E+02  0.00000000000E+00 0. -1.
      -12    1    3    3    0    0 -0.13463571060E+02  0.33431670750E+02  0.88434174332E+02  0.95496322152E+02  0.00000000000E+00 0.  1.
</event>
<event>
 5   0  0.2392100E+01  0.8177072E+02  0.7957747E-01  0.1322873E+00
       -2   -1    0    0    0  501  0.00000000000E+00  0.00000000000E+00  0.11890430961E+02  0.11890430961E+02  0.00000000000E+00 0.  1.
        1   -1    0    0  501    0  0.00000000000E+00  0.00000000000E+00 -0.14058468560E+03  0.14058468560E+03  0.00000000000E+00 0. -1.
      -24    2    1    2    0    0  0.00000000000E+00  0.00000000000E+00 -0.12869425464E+03  0.15247511656E+03  0.81770715988E+02 0.  0.
       11    1    3    3    0    0  0.36525187386E+02 -0.70051610885E+01 -0.96016329661E+02  0.10296745679E+03  0.00000000000E+00 0. -1.
      -12    1    3    3    0    0 -0.36525187386E+02  0.70051610885E+01 -0.32677924974E+02  0.49507659772E+02  0.00000000000E+00 0.  1.
</event>
<event>
 5   0  0.2392100E+01  0.8122385E+02  0.7957747E-01  0.1324308E+00
        1   -1    0    0  501    0  0.00000000000E+00  0.00000000000E+00  0.12357488939E+03  0.12357488939E+03  0.00000000000E+00 0. -1.
       -2   -1    0    0    0  501  0.00000000000E+00  0.00000000000E+00 -0.13346791444E+02  0.13346791444E+02  0.00000000000E+00 0.  1.
      -24    2    1    2    0    0  0.00000000000E+00  0.00000000000E+00  0.11022809795E+03  0.13692168084E+03  0.81223845671E+02 0.  0.
       11    1    3    3    0    0 -0.24143256894E+02  0.28311496257E+02  0.82550121962E+02  0.90548110470E+02  0.00000000000E+00 0. -1.
      -12    1    3    3    0    0  0.24143256894E+02 -0.28311496257E+02  0.27677975987E+02  0.46373570366E+02  0.00000000000E+00 0.  1.
</event>
<event>
 5   0  0.2392100E+01  0.7898740E+02  0.7957747E-01  0.1330310E+00
        3   -1    0    0  501    0  0.00000000000E+00  0.00000000000E+00  0.50227731782E+02  0.50227731782E+02  0.00000000000E+00 0. -1.
       -4   -1    0    0    0  501  0.00000000000E+00  0.00000000000E+00 -0.31053610924E+02  0.31053610924E+02  0.00000000000E+00 0.  1.
      -24    2    1    2    0    0  0.00000000000E+00  0.00000000000E+00  0.19174120858E+02  0.81281342707E+02  0.78987402550E+02 0.  0.
       11    1    3    3    0    0 -0.10659143099E+02  0.11571647169E+02  0.46863838127E+02  0.49434195389E+02  0.00000000000E+00 0. -1.
      -12    1    3    3    0    0  0.10659143099E+02 -0.11571647169E+02 -0.27689717269E+02  0.31847147317E+02  0.00000000000E+00 0.  1.
</event>
<event>
 5   0  0.2392100E+01  0.8257885E+02  0.7957747E-01  0.1320777E+00
        1   -1    0    0  501    0  0.00000000000E+00  0.00000000000E+00  0.22272014026E+02  0.22272014026E+02  0.00000000000E+00 0. -1.
       -2   -1    0    0    0  501  0.00000000000E+00  0.00000000000E+00 -0.76545243932E+02  0.76545243932E+02  0.00000000000E+00 0.  1.
      -24    2    1    2    0    0  0.00000000000E+00  0.00000000000E+00 -0.54273229906E+02  0.98817257958E+02  0.82578853139E+02 0.  0.
       11    1    3    3    0    0  0.26950929289E+02 -0.12485558458E+01  0.10264984659E+02  0.28866613783E+02  0.00000000000E+00 0. -1.
      -12    1    3    3    0    0 -0.26950929289E+02  0.12485558458E+01 -0.64538214565E+02  0.69950644175E+02  0.00000000000E+00 0.  1.
</event>
<event>
 5   0  0.2392100E+01  0.8047811E+02  0.7957747E-01  0.1326285E+00
        3   -1    0    0  501    0  0.00000000000E+00  0.00000000000E+00  0.21133628019E+03  0.21133628019E+03  0.00000000000E+00 0. -1.
       -4   -1    0    0    0  501  0.00000000000E+00  0.00000000000E+00 -0.76616352134E+01  0.76616352134E+01  0.00000000000E+00 0.  1.
      -24    2    1    2    0    0  0.00000000000E+00  0.00000000000E+00  0.20367464498E+03  0.21899791540E+03  0.80478108481E+02 0.  0.
       11    1    3    3    0    0  0.15006129678E+02  0.37305474140E+02  0.10596348736E+03  0.11333641508E+03  0.00000000000E+00 0. -1.
      -12    1    3    3    0    0 -0.15006129678E+02 -0.37305474140E+02  0.97711157612E+02  0.10566150032E+03  0.00000000000E+00 0.  1.
</event>
<event>
 5   0  0.2392100E+01  0.8391314E+02  0.7957747E-01  0.1317374E+00
        1   -1    0    0  501    0  0.00000000000E+00  0.00000000000E+00  0.19072830908E+03  0.19072830908E+03  0.00000000000E+00 0. -1.
       -2   -1    0    0    0  501  0.00000000000E+00  0.00000000000E+00 -0.92296402442E+01  0.92296402442E+01  0.00000000000E+00 0.  1.
      -24    2    1    2    0    0  0.00000000000E+00  0.00000000000E+00  0.18149866884E+03  0.19995794933E+03  0.83913137880E+02 0.  0.
       11    1    3    3    0    0  0.19760872805E+02 -0.32548986710E+02  0.48765017596E+02  0.61870474145E+02  0.00000000000E+00 0. -1.
      -12    1    3    3    0    0 -0.19760872805E+02  0.32548986710E+02  0.13273365124E+03  0.13808747518E+03  0.00000000000E+00 0.  1.
</event>
<event>
 5   0  0.2392100E+01  0.8146020E+02  0.7957747E-01  0.1323686E+00
        1   -1    0    0  501    0  0.00000000000E+00  0.00000000000E+00  0.14170171937E+02  0.14170171937E+02  0.00000000000E+00 0. -1.
       -2   -1    0    0    0  501  0.00000000000E+00  0.00000000000E+00 -0.11707275815E+03  0.11707275815E+03  0.00000000000E+00 0.  1.
      -24    2    1    2    0    0  0.00000000000E+00  0.00000000000E+00 -0.10290258622E+03  0.13124293009E+03  0.81460201626E+02 0.  0.
       11    1    3    3    0    0 -0.32997268978E+02  0.20586300621E+02 -0.31962247919E+02  0.50340846490E+02  0.00000000000E+00 0. -1.
      -12    1    3    3    0    0  0.32997268978E+02 -0.20586300621E+02 -0.70940338297E+02  0.80902083601E+02  0.00000000000E+00 0.  1.
</event>
<event>
 5   0  0.2392100E+01  0.8113323E+02  0.7957747E-01  0.1324547E+00
       -2   -1    0    0    0  501  0.00000000000E+00  0.00000000000E+00  0.21460781745E+02  0.21460781745E+02  0.00000000000E+00 0.  1.
        1   -1    0    0  501    0  0.00000000000E+00  0.00000000000E+00 -0.76681748034E+02  0.76681748034E+02  0.00000000000E+00 0. -1.
      -24    2    1    2    0    0  0.00000000000E+00  0.00000000000E+00 -0.55220966290E+02  0.98142529779E+02  0.81133230143E+02 0.  0.
       11    1    3    3    0    0  0.32876037171E+02 -0.23048993370E+02 -0.20602844858E+02  0.45128340670E+02  0.00000000000E+00 0. -1.
      -12    1    3    3    0    0 -0.32876037171E+02  0.23048993370E+02 -0.34618121431E+02  0.53014189109E+02  0.00000000000E+00 0.  1.
</event>
<event>
 5   0  0.2392100E+01  0.7974137E+02  0.7957747E-01  0.1328262E+00
        1   -1    0    0  501    0  0.00000000000E+00  0.00000000000E+00  0.42412814341E+02  0.42412814341E+02  0.00000000000E+00 0. -1.
       -2   -1    0    0    0  501  0.00000000000E+00  0.00000000000E+00 -0.37480926948E+02  0.37480926948E+02  0.00000000000E+00 0.  1.
      -24    2    1    2    0    0  0.00000000000E+00  0.00000000000E+00  0.49318873926E+01  0.79893741289E+02  0.79741371846E+02 0.  0.
       11    1    3    3    0    0  0.32167131663E+02 -0.22528361548E+02  0.93653317955E+01  0.40372773908E+02  0.00000000000E+00 0. -1.
      -12    1    3    3    0    0 -0.32167131663E+02  0.22528361548E+02 -0.44334444029E+01  0.39520967381E+02  0.00000000000E+00 0.  1.
</event>
<event>
 5   0  0.2392100E+01  0.8320083E+02  0.7957747E-01  0.1319182E+00
        3   -1    0    0  501    0  0.00000000000E+00  0.00000000000E+00  0.41414073800E+03  0.41414073800E+03  0.00000000000E+00 0. -1.
       -4   -1    0    0    0  501  0.00000000000E+00  0.00000000000E+00 -0.41787595644E+01  0.41787595644E+01  0.00000000000E+00 0.  1.
      -24    2    1    2    0    0  0.00000000000E+00  0.00000000000E+00  0.40996197844E+03  0.41831949757E+03  0.83200831004E+02 0.  0.
       11    1    3    3    0    0  0.33427326046E+02  0.23994715196E+02  0.23575445581E+03  0.23931839862E+03  0.00000000000E+00 0. -1.
      -12    1    3    3    0    0 -0.33427326046E+02 -0.23994715196E+02  0.17420752263E+03  0.17900109895E+03  0.00000000000E+00 0.  1.
</event>
<event>
 5   0  0.2392100E+01  0.7866094E+02  0.7957747E-01  0.1331205E+00
        3   -1    0    0  501    0  0.00000000000E+00  0.00000000000E+00  0.47122808666E+01  0.47122808666E+01  0.00000000000E+00 0. -1.
       -4   -1    0    0    0  501  0.00000000000E+00  0.00000000000E+00 -0.32826692113E+03  0.32826692113E+03  0.00000000000E+00 0.  1.
      -24    2    1    2    0    0  0.00000000000E+00  0.00000000000E+00 -0.32355464026E+03  0.33297920199E+03  0.78660941555E+02 0.  0.
       11    1    3    3    0    0 -0.13170276311E+02  0.23890453218E+02 -0.41847244895E+02  0.49953997221E+02  0.00000000000E+00 0. -1.
      -12    1    3    3    0    0  0.13170276311E+02 -0.23890453218E+02 -0.28170739537E+03  0.28302520477E+03  0.00000000000E+00 0.  1.
</event>
<event>
 5   0  0.2392100E+01  0.8111072E+02  0.7957747E-01  0.1324606E+00
       -2   -1    0    0    0  501  0.00000000000E+00  0.00000000000E+00  0.14698819343E+02  0.14698819343E+02  0.00000000000E+00 0.  1.
        1   -1    0    0  501    0  0.00000000000E+00  0.00000000000E+00 -0.11189586115E+03  0.11189586115E+03  0.00000000000E+00 0. -1.
      -24    2    1    2    0    0  0.00000000000E+00  0.00000000000E+00 -0.97197041808E+02  0.12659468049E+03  0.81110715650E+02 0.  0.
       11    1    3    3    0    0  0.27880495930E+02  0.94779765116E+01 -0.92120695831E+02  0.96712856913E+02  0.00000000000E+00 0. -1.
      -12    1    3    3    0    0 -0.27880495930E+02 -0.94779765116E+01 -0.50763459770E+01  0.29881823581E+02  0.00000000000E+00 0.  1.
</event>
<event>
 5   0  0.2392100E+01  0.7999741E+02  0.7957747E-01  0.1327572E+00
       -2   -1    0    0    0  501  0.00000000000E+00  0.00000000000E+00  0.58268506273E+03  0.58268506273E+03  0.00000000000E+00 0.  1.
        1   -1    0    0  501    0  0.00000000000E+00  0.00000000000E+00 -0.27457309182E+01  0.27457309182E+01  0.00000000000E+00 0. -1.
      -24    2    1    2    0    0  0.00000000000E+00  0.00000000000E+00  0.57993933181E+03  0.58543079364E+03  0.79997409765E+02 0.  0.
       11    1    3    3    0    0 -0.22313539808E+02 -0.10948588686E+02  0.60627299468E+02  0.65524309182E+02  0.00000000000E+00 0. -1.
      -12    1    3    3    0    0  0.22313539808E+02  0.10948588686E+02  0.51931203234E+03  0.51990648446E+03  0.00000000000E+00 0.  1.
</event>
<event>
 5   0  0.2392100E+01  0.7914993E+02  0.7957747E-01  0.1329866E+00
        1   -1    0    0  501    0  0.00000000000E+00  0.00000000000E+00  0.10536489907E+03  0.10536489907E+03  0.00000000000E+00 0. -1.
       -2   -1    0    0    0  501  0.00000000000E+00  0.00000000000E+00 -0.14864323506E+02  0.14864323506E+02  0.00000000000E+00 0.  1.
      -24    2    1    2    0    0  0.00000000000E+00  0.00000000000E+00  0.90500575566E+02  0.12022922258E+03  0.79149932306E+02 0.  0.
       11    1    3    3    0    0  0.15222825932E+02  0.35819637198E+02  0.56140311640E+02  0.68311898154E+02  0.00000000000E+00 0. -1.
      -12    1    3    3    0    0 -0.15222825932E+02 -0.35819637198E+02  0.34360263926E+02  0.51917324425E+02  0.00000000000E+00 0.  1.
</event>
<event>
 5   0  0.2392100E+01  0.7394413E+02  0.7957747E-01  0.1344711E+00
       -2   -1    0    0    0  501  0.00000000000E+00  0.00000000000E+00  0.84587519395E+02  0.84587519395E+02  0.00000000000E+00 0.  1.
        1   -1    0    0  501    0  0.00000000000E+00  0.00000000000E+00 -0.16159992338E+02  0.16159992338E+02  0.00000000000E+00 0. -1.
      -24    2    1    2    0    0  0.00000000000E+00  0.00000000000E+00  0.68427527057E+02  0.10074751173E+03  0.73944132027E+02 0.  0.
       11    1    3    3    0    0  0.35632980647E+02 -0.24917760980E+01  0.21215418164E+02  0.41545303294E+02  0.00000000000E+00 0. -1.
      -12    1    3    3    0    0 -0.35632980647E+02  0.24917760980E+01  0.47212108893E+02  0.59202208439E+02  0.00000000000E+00 0.  1.
</event>
<event>
 5   0  0.2392100E+01  0.8160537E+02  0.7957747E-01  0.1323306E+00
       -2   -1    0    0    0  501  0.00000000000E+00  0.00000000000E+00  0.83177358925E+01  0.83177358925E+01  0.00000000000E+00 0.  1.
        1   -1    0    0  501    0  0.00000000000E+00  0.00000000000E+00 -0.20015771634E+03  0.20015771634E+03  0.00000000000E+00 0. -1.
      -24    2    1    2    0    0  0.00000000000E+00  0.00000000000E+00 -0.19183998045E+03  0.20847545224E+03  0.81605367995E+02 0.  0.
       11    1    3    3    0    0 -0.20283133771E+02  0.34643727294E+02 -0.11456488230E+03  0.12139483355E+03  0.00000000000E+00 0. -1.
      -12    1    3    3    0    0  0.20283133771E+02 -0.34643727294E+02 -0.77275098150E+02  0.87080618685E+02  0.00000000000E+00 0.  1.
</event>
<event>
 5   0  0.2392100E+01  0.8140062E+02  0.7957747E-01  0.1323843E+00
        1   -1    0    0  501    0  0.00000000000E+00  0.00000000000E+00  0.46242688267E+02  0.46242688267E+02  0.00000000000E+00 0. -1.
       -2   -1    0    0    0  501  0.00000000000E+00  0.00000000000E+00 -0.35822207772E+02  0.35822207772E+02  0.00000000000E+00 0.  1.
      -24    2    1    2    0    0  0.00000000000E+00  0.00000000000E+00  0.10420480496E+02  0.82064896039E+02  0.81400618844E+02 0.  0.
       11    1    3    3    0    0  0.38608172173E+02  0.57844349167E+01  0.16813487240E+02  0.42505811355E+02  0.00000000000E+00 0. -1.
      -12    1    3    3    0    0 -0.38608172173E+02 -0.57844349167E+01 -0.63930067440E+01  0.39559084684E+02  0.00000000000E+00 0.  1.
</event>
<event>
 4   0  0.2392100E+01  0.3814294E+02  0.7957747E-01  0.1508566E+00
       -2   -1    0    0    0  501  0.00000000000E+00  0.00000000000E+00  0.57080238641E+02  0.57080238641E+02  0.00000000000E+00 0.  1.
        1   -1    0    0  501    0  0.00000000000E+00  0.00000000000E+00 -0.63721012677E+01  0.63721012677E+01  0.00000000000E+00 0. -1.
       11    1    1    2    0    0 -0.17986760360E+02  0.20738686317E+01  0.15387171724E+02  0.23761092841E+02  0.00000000000E+00 0. -1.
      -12    1    1    2    0    0  0.17986760360E+02 -0.20738686317E+01  0.35320965650E+02  0.39691247068E+02  0.00000000000E+00 0.  1.
</event>
<event>
 5   0  0.2392100E+01  0.8884510E+02  0.7957747E-01  0.1305390E+00
        1   -1    0    0  501    0  0.00000000000E+00  0.00000000000E+00  0.13132679786E+02  0.13132679786E+02  0.00000000000E+00 0. -1.
       -2   -1    0    0    0  501  0.00000000000E+00  0.00000000000E+00 -0.15026353142E+03  0.15026353142E+03  0.00000000000E+00 0.  1.
      -24    2    1    2    0    0  0.00000000000E+00  0.00000000000E+00 -0.13713085163E+03  0.16339621120E+03  0.88845097593E+02 0.  0.
       11    1    3    3    0    0 -0.37922101888E+02  0.95321008382E+01 -0.29794747695E+02  0.49159676038E+02  0.00000000000E+00 0. -1.
      -12    1    3    3    0    0  0.37922101888E+02 -0.95321008382E+01 -0.10733610394E+03  0.11423653517E+03  0.00000000000E+00 0.  1.
</event>
<event>
 5   0  0.2392100E+01  0.8684055E+02  0.7957747E-01  0.1310152E+00
       -2   -1    0    0    0  501  0.00000000000E+00  0.00000000000E+00  0.20539282336E+02  0.20539282336E+02  0.00000000000E+00 0.  1.
        1   -1    0    0  501    0  0.00000000000E+00  0.00000000000E+00 -0.91790952290E+02  0.91790952290E+02  0.00000000000E+00 0. -1.
      -24    2    1    2    0    0  0.00000000000E+00  0.00000000000E+00 -0.71251669954E+02  0.11233023463E+03  0.86840550090E+02 0.  0.
       11    1    3    3    0    0 -0.90243063222E+01 -0.22003763483E+02 -0.82616807741E+02  0.85971743225E+02  0.00000000000E+00 0. -1.
      -12    1    3    3    0    0  0.90243063222E+01  0.22003763483E+02  0.11365137787E+02  0.26358491400E+02  0.00000000000E+00 0.  1.
</event>
<event>
 5   0  0.2392100E+01  0.7664788E+02  0.7957747E-01  0.1336834E+00
        1   -1    0    0  501    0  0.00000000000E+00  0.00000000000E+00  0.34161088245E+02  0.34161088245E+02  0.00000000000E+00 0. -1.
       -2   -1    0    0    0  501  0.00000000000E+00  0.00000000000E+00 -0.42994077303E+02  0.42994077303E+02  0.00000000000E+00 0.  1.
      -24    2    1    2    0    0  0.00000000000E+00  0.00000000000E+00 -0.88329890577E+01  0.77155165548E+02  0.76647882392E+02 0.  0.
       11    1    3    3    0    0  0.36724375173E+02 -0.23343332704E+01 -0.15192278239E+02  0.39811231603E+02  0.00000000000E+00 0. -1.
      -12    1    3    3    0    0 -0.36724375173E+02  0.23343332704E+01  0.63592891816E+01  0.37343933946E+02  0.00000000000E+00 0.  1.
</event>
<event>
 5   0  0.2392100E+01  0.8411396E+02  0.7957747E-01  0.1316868E+00
        1   -1    0    0  501    0  0.00000000000E+00  0.00000000000E+00  0.12229711227E+03  0.12229711227E+03  0.00000000000E+00 0. -1.
       -2   -1    0    0    0  501  0.00000000000E+00  0.00000000000E+00 -0.14463052629E+02  0.14463052629E+02  0.00000000000E+00 0.  1.
      -24    2    1    2    0    0  0.00000000000E+00  0.00000000000E+00  0.10783405964E+03  0.13676016490E+03  0.84113960107E+02 0.  0.
       11    1    3    3    0    0  0.15213748271E+02 -0.20714955637E+02  0.10804290462E+03  0.11105780820E+03  0.00000000000E+00 0. -1.
      -12    1    3    3    0    0 -0.15213748271E+02  0.20714955637E+02 -0.20884498251E+00  0.25702356696E+02  0.00000000000E+00 0.  1.
</event>
<event>
 5   0  0.2392100E+01  0.8007978E+02  0.7957747E-01  0.1327350E+00
       -2   -1    0    0    0  501  0.00000000000E+00  0.00000000000E+00  0.11217193501E+02  0.11217193501E+02  0.00000000000E+00 0.  1.
        1   -1    0    0  501    0  0.00000000000E+00  0.00000000000E+00 -0.14292281079E+03  0.14292281079E+03  0.00000000000E+00 0. -1.
      -24    2    1    2    0    0  0.00000000000E+00  0.00000000000E+00 -0.13170561729E+03  0.15414000429E+03  0.80079780827E+02 0.  0.
       11    1    3    3    0    0  0.12127214590E+02  0.24860057316E+02 -0.12157660302E+03  0.12468344792E+03  0.00000000000E+00 0. -1.
      -12    1    3    3    0    0 -0.12127214590E+02 -0.24860057316E+02 -0.10129014278E+02  0.29456556379E+02  0.00000000000E+00 0.  1.
</event>
<event>
 5   0  0.2392100E+01  0.8055904E+02  0.7957747E-01  0.1326069E+00
       -2   -1    0    0    0  501  0.00000000000E+00  0.00000000000E+00  0.64392382834E+01  0.64392382834E+01  0.00000000000E+00 0.  1.
        1   -1    0    0  501    0  0.00000000000E+00  0.00000000000E+00 -0.25196143371E+03  0.25196143371E+03  0.00000000000E+00 0. -1.
      -24    2    1    2    0    0  0.00000000000E+00  0.00000000000E+00 -0.24552219542E+03  0.25840067199E+03  0.80559039465E+02 0.  0.
       11    1    3    3    0    0  0.40234638431E+02 -0.54500790730E+00 -0.12860257117E+03  0.13475067523E+03  0.00000000000E+00 0. -1.
      -12    1    3    3    0    0 -0.40234638431E+02  0.54500790730E+00 -0.11691962426E+03  0.12364999676E+03  0.00000000000E+00 0.  1.
</event>
<event>
 5   0  0.2392100E+01  0.8091500E+02  0.7957747E-01  0.1325124E+00
       -2   -1    0    0    0  501  0.00000000000E+00  0.00000000000E+00  0.12223842692E+02  0.12223842692E+02  0.00000000000E+00 0.  1.
        1   -1    0    0  501    0  0.00000000000E+00  0.00000000000E+00 -0.13390299629E+03  0.13390299629E+03  0.00000000000E+00 0. -1.
      -24    2    1    2    0    0  0.00000000000E+00  0.00000000000E+00 -0.12167915360E+03  0.14612683898E+03  0.80914996450E+02 0.  0.
       11    1    3    3    0    0 -0.27400892104E+02 -0.17770713812E+02 -0.10396320971E+03  0.10897227230E+03  0.00000000000E+00 0. -1.
      -12    1    3    3    0    0  0.27400892104E+02  0.17770713812E+02 -0.17715943892E+02  0.37154566684E+02  0.00000000000E+00 0.  1.
</event>
<event>
 5   0  0.2392100E+01  0.8046671E+02  0.7957747E-01  0.1326315E+00
       -2   -1    0    0    0  501  0.00000000000E+00  0.00000000000E+00  0.21315079849E+02  0.21315079849E+02  0.00000000000E+00 0.  1.
        1   -1    0    0  501    0  0.00000000000E+00  0.00000000000E+00 -0.75942620690E+02  0.75942620690E+02  0.00000000000E+00 0. -1.
      -24    2    1    2    0    0  0.00000000000E+00  0.00000000000E+00 -0.54627540841E+02  0.97257700540E+02  0.80466714211E+02 0.  0.
       11    1    3    3    0    0 -0.21546417584E+02  0.20173491188E+02 -0.60359460772E+02  0.67189897768E+02  0.00000000000E+00 0. -1.
      -12    1    3    3    0    0  0.21546417584E+02 -0.20173491188E+02  0.57319199305E+01  0.30067802772E+02  0.00000000000E+00 0.  1.
</event>
<event>
 5   0  0.2392100E+01  0.8017278E+02  0.7957747E-01  0.1327101E+00
       -2   -1    0    0    0  501  0.00000000000E+00  0.00000000000E+00  0.26075934737E+02  0.26075934737E+02  0.00000000000E+00 0.  1.
        1   -1    0    0  501    0  0.00000000000E+00  0.00000000000E+00 -0.61624583290E+02  0.61624583290E+02  0.00000000000E+00 0. -1.
      -24    2    1    2    0    0  0.00000000000E+00  0.00000000000E+00 -0.35548648553E+02  0.87700518027E+02  0.80172778724E+02 0.  0.
       11    1    3    3    0    0 -0.76636129027E+01  0.39099547336E+02 -0.22594047294E+02  0.45803892168E+02  0.00000000000E+00 0. -1.
      -12    1    3    3    0    0  0.76636129027E+01 -0.39099547336E+02 -0.12954601259E+02  0.41896625859E+02  0.00000000000E+00 0.  1.
</event>
<event>
 5   0  0.2392100E+01  0.8060880E+02  0.7957747E-01  0.1325936E+00
        1   -1    0    0  501    0  0.00000000000E+00  0.00000000000E+00  0.20263364469E+03  0.20263364469E+03  0.00000000000E+00 0. -1.
       -2   -1    0    0    0  501  0.00000000000E+00  0.00000000000E+00 -0.80166585660E+01  0.80166585660E+01  0.00000000000E+00 0.  1.
      -24    2    1    2    0    0  0.00000000000E+00  0.00000000000E+00  0.19461698613E+03  0.21065030326E+03  0.80608802087E+02 0.  0.
       11    1    3    3    0    0  0.36834529695E+02  0.41238155671E+01  0.13868167692E+03  0.14354928055E+03  0.00000000000E+00 0. -1.
      -12    1    3    3    0    0 -0.36834529695E+02 -0.41238155671E+01  0.55935309207E+02  0.67101022710E+02  0.00000000000E+00 0.  1.
</event>
<event>
 5   0  0.2392100E+01  0.8125710E+02  0.7957747E-01  0.1324220E+00
       -2   -1    0    0    0  501  0.00000000000E+00  0.00000000000E+00  0.95675259600E+01  0.95675259600E+01  0.00000000000E+00 0.  1.
        1   -1    0    0  501    0  0.00000000000E+00  0.00000000000E+00 -0.17252936789E+03  0.17252936789E+03  0.00000000000E+00 0. -1.
      -24    2    1    2    0    0  0.00000000000E+00  0.00000000000E+00 -0.16296184193E+03  0.18209689385E+03  0.81257103226E+02 0.  0.
       11    1    3    3    0    0  0.78434735500E+01 -0.27457462331E+02 -0.14624715366E+03  0.14900893352E+03  0.00000000000E+00 0. -1.
      -12    1    3    3    0    0 -0.78434735500E+01  0.27457462331E+02 -0.16714688273E+02  0.33087960333E+02  0.00000000000E+00 0.  1.
</event>
<event>
 5   0  0.2392100E+01  0.8051430E+02  0.7957747E-01  0.1326188E+00
       -4   -1    0    0    0  501  0.00000000000E+00  0.00000000000E+00  0.17591531878E+02  0.17591531878E+02  0.00000000000E+00 0.  1.
        3   -1    0    0  501    0  0.00000000000E+00  0.00000000000E+00 -0.92126044105E+02  0.92126044105E+02  0.00000000000E+00 0. -1.
      -24    2    1    2    0    0  0.00000000000E+00  0.00000000000E+00 -0.74534512227E+02  0.10971757598E+03  0.80514302869E+02 0.  0.
       11    1    3    3    0    0  0.13947779496E+01 -0.21396715399E+02 -0.83696926258E+02  0.86399885997E+02  0.00000000000E+00 0. -1.
      -12    1    3    3    0    0 -0.13947779496E+01  0.21396715399E+02  0.91624140302E+01  0.23317689985E+02  0.00000000000E+00 0.  1.
</event>
<event>
 5   0  0.2392100E+01  0.7937374E+02  0.7957747E-01  0.1329257E+00
        1   -1    0    0  501    0  0.00000000000E+00  0.00000000000E+00  0.19571342569E+03  0.19571342569E+03  0.00000000000E+00 0. -1.
       -2   -1    0    0    0  501  0.00000000000E+00  0.00000000000E+00 -0.80477239305E+01  0.80477239305E+01  0.00000000000E+00 0.  1.
      -24    2    1    2    0    0  0.00000000000E+00  0.00000000000E+00  0.18766570176E+03  0.20376114962E+03  0.79373739220E+02 0.  0.
       11    1    3    3    0    0  0.31976382438E+01 -0.33159441928E+02  0.14920597156E+03  0.15287967631E+03  0.00000000000E+00 0. -1.
      -12    1    3    3    0    0 -0.31976382438E+01  0.33159441928E+02  0.38459730202E+02  0.50881473314E+02  0.00000000000E+00 0.  1.
</event>
<event>
 5   0  0.2392100E+01  0.8040197E+02  0.7957747E-01  0.1326488E+00
       -2   -1    0    0    0  501  0.00000000000E+00  0.00000000000E+00  0.63074883695E+01  0.63074883695E+01  0.00000000000E+00 0.  1.
        1   -1    0    0  501    0  0.00000000000E+00  0.00000000000E+00 -0.25622229600E+03  0.25622229600E+03  0.00000000000E+00 0. -1.
      -24    2    1    2    0    0  0.00000000000E+00  0.00000000000E+00 -0.24991480763E+03  0.26252978437E+03  0.80401968932E+02 0.  0.
       11    1    3    3    0    0  0.39499110713E+02  0.77200141972E+00 -0.10066643204E+03  0.10814114052E+03  0.00000000000E+00 0. -1.
      -12    1    3    3    0    0 -0.39499110713E+02 -0.77200141972E+00 -0.14924837560E+03  0.15438864386E+03  0.00000000000E+00 0.  1.
</event>
<event>
 5   0  0.2392100E+01  0.8166697E+02  0.7957747E-01  0.1323145E+00
       -2   -1    0    0    0  501  0.00000000000E+00  0.00000000000E+00  0.39222568734E+03  0.39222568734E+03  0.00000000000E+00 0.  1.
        1   -1    0    0  501    0  0.00000000000E+00  0.00000000000E+00 -0.42510561525E+01  0.42510561525E+01  0.00000000000E+00 0. -1.
      -24    2    1    2    0    0  0.00000000000E+00  0.00000000000E+00  0.38797463119E+03  0.39647674349E+03  0.81666968140E+02 0.  0.
       11    1    3    3    0    0 -0.90392292997E+01 -0.21073957108E+02  0.29958733287E+02  0.37727245258E+02  0.00000000000E+00 0. -1.
      -12    1    3    3    0    0  0.90392292997E+01  0.21073957108E+02  0.35801589790E+03  0.35874949823E+03  0.00000000000E+00 0.  1.
</event>
<event>
 5   0  0.2392100E+01  0.7565953E+02  0.7957747E-01  0.1339670E+00
        3   -1    0    0  501    0  0.00000000000E+00  0.00000000000E+00  0.18993145197E+01  0.18993145197E+01  0.00000000000E+00 0. -1.
       -4   -1    0    0    0  501  0.00000000000E+00  0.00000000000E+00 -0.75347771481E+03  0.75347771481E+03  0.00000000000E+00 0.  1.
      -24    2    1    2    0    0  0.00000000000E+00  0.00000000000E+00 -0.75157840029E+03  0.75537702933E+03  0.75659531165E+02 0.  0.
       11    1    3    3    0    0 -0.24275451756E+01  0.10548027422E+02 -0.13890144408E+02  0.17609371646E+02  0.00000000000E+00 0. -1.
      -12    1    3    3    0    0  0.24275451756E+01 -0.10548027422E+02 -0.73768825588E+03  0.73776765768E+03  0.00000000000E+00 0.  1.
</event>
<event>
 5   0  0.2392100E+01  0.8881564E+02  0.7957747E-01  0.1305459E+00
        3   -1    0    0  501    0  0.00000000000E+00  0.00000000000E+00  0.20046666355E+02  0.20046666355E+02  0.00000000000E+00 0. -1.
       -4   -1    0    0    0  501  0.00000000000E+00  0.00000000000E+00 -0.98373197467E+02  0.98373197467E+02  0.00000000000E+00 0.  1.
      -24    2    1    2    0    0  0.00000000000E+00  0.00000000000E+00 -0.78326531112E+02  0.11841986382E+03  0.88815644296E+02 0.  0.
       11    1    3    3    0    0  0.16808006204E+02  0.40769262651E+02 -0.32182357304E+02  0.54592545016E+02  0.00000000000E+00 0. -1.
      -12    1    3    3    0    0 -0.16808006204E+02 -0.40769262651E+02 -0.46144173808E+02  0.63827318807E+02  0.00000000000E+00 0.  1.
</event>
<event>
 5   0  0.2392100E+01  0.8020716E+02  0.7957747E-01  0.1327009E+00
        1   -1    0    0  501    0  0.00000000000E+00  0.00000000000E+00  0.43631317616E+02  0.43631317616E+02  0.00000000000E+00 0. -1.
       -2   -1    0    0    0  501  0.00000000000E+00  0.00000000000E+00 -0.36861068806E+02  0.36861068806E+02  0.00000000000E+00 0.  1.
      -24    2    1    2    0    0  0.00000000000E+00  0.00000000000E+00  0.67702488103E+01  0.80492386422E+02  0.80207156806E+02 0.  0.
       11    1    3    3    0    0 -0.21831255003E+02  0.25617355492E+02  0.25267353045E+02  0.42086716756E+02  0.00000000000E+00 0. -1.
      -12    1    3    3    0    0  0.21831255003E+02 -0.25617355492E+02 -0.18497104235E+02  0.38405669666E+02  0.00000000000E+00 0.  1.
</event>
<event>
 5   0  0.2392100E+01  0.8426635E+02  0.7957747E-01  0.1316485E+00
        1   -1    0    0  501    0  0.00000000000E+00  0.00000000000E+00  0.21775853982E+02  0.21775853982E+02  0.00000000000E+00 0. -1.
       -2   -1    0    0    0  501  0.00000000000E+00  0.00000000000E+00 -0.81521687056E+02  0.81521687056E+02  0.00000000000E+00 0.  1.
      -24    2    1    2    0    0  0.00000000000E+00  0.00000000000E+00 -0.59745833074E+02  0.10329754104E+03  0.84266348056E+02 0.  0.
       11    1    3    3    0    0  0.12156126752E+02  0.70142402596E+01  0.18826237991E+02  0.23481870048E+02  0.00000000000E+00 0. -1.
      -12    1    3    3    0    0 -0.12156126752E+02 -0.70142402596E+01 -0.78572071066E+02  0.79815670990E+02  0.00000000000E+00 0.  1.
</event>
<event>
 5   0  0.2392100E+01  0.8085723E+02  0.7957747E-01  0.1325277E+00
       -4   -1    0    0    0  501  0.00000000000E+00  0.00000000000E+00  0.95588966895E+01  0.95588966895E+01  0.00000000000E+00 0.  1.
        3   -1    0    0  501    0  0.00000000000E+00  0.00000000000E+00 -0.17098971821E+03  0.17098971821E+03  0.00000000000E+00 0. -1.
      -24    2    1    2    0    0  0.00000000000E+00  0.00000000000E+00 -0.16143082152E+03  0.18054861490E+03  0.80857233475E+02 0.  0.
       11    1    3    3    0    0 -0.36058622379E+02  0.56647082657E+01 -0.11952988300E+03  0.12497882260E+03  0.00000000000E+00 0. -1.
      -12    1    3    3    0    0  0.36058622379E+02 -0.56647082657E+01 -0.41900938518E+02  0.55569792300E+02  0.00000000000E+00 0.  1.
</event>
<event>
 5   0  0.2392100E+01  0.8102713E+02  0.7957747E-01  0.1324827E+00
       -2   -1    0    0    0  501  0.00000000000E+00  0.00000000000E+00  0.44199187102E+02  0.44199187102E+02  0.00000000000E+00 0.  1.
        1   -1    0    0  501    0  0.00000000000E+00  0.00000000000E+00 -0.37135276265E+02  0.37135276265E+02  0.00000000000E+00 0. -1.
      -24    2    1    2    0    0  0.00000000000E+00  0.00000000000E+00  0.70639108371E+01  0.81334463367E+02  0.81027131844E+02 0.  0.
       11    1    3    3    0    0  0.25761455491E+02  0.21730975580E+02 -0.19035782179E+02  0.38707220151E+02  0.00000000000E+00 0. -1.
      -12    1    3    3    0    0 -0.25761455491E+02 -0.21730975580E+02  0.26099693016E+02  0.42627243216E+02  0.00000000000E+00 0.  1.
</event>
<event>
 5   0  0.2392100E+01  0.8214648E+02  0.7957747E-01  0.1321895E+00
        1   -1    0    0  501    0  0.00000000000E+00  0.00000000000E+00  0.32992895398E+03  0.32992895398E+03  0.00000000000E+00 0. -1.
       -2   -1    0    0    0  501  0.00000000000E+00  0.00000000000E+00 -0.51132550197E+01  0.51132550197E+01  0.00000000000E+00 0.  1.
      -24    2    1    2    0    0  0.00000000000E+00  0.00000000000E+00  0.32481569896E+03  0.33504220900E+03  0.82146476007E+02 0.  0.
       11    1    3    3    0    0  0.32503138023E+02 -0.23634404724E+02  0.12780659819E+03  0.13397598893E+03  0.00000000000E+00 0. -1.
      -12    1    3    3    0    0 -0.32503138023E+02  0.23634404724E+02  0.19700910077E+03  0.20106622007E+03  0.00000000000E+00 0.  1.
</event>
<event>
 5   0  0.2392100E+01  0.8725404E+02  0.7957747E-01  0.1309158E+00
        1   -1    0    0  501    0  0.00000000000E+00  0.00000000000E+00  0.10544429844E+03  0.10544429844E+03  0.00000000000E+00 0. -1.
       -2   -1    0    0    0  501  0.00000000000E+00  0.00000000000E+00 -0.18050448633E+02  0.18050448633E+02  0.00000000000E+00 0.  1.
      -24    2    1    2    0    0  0.00000000000E+00  0.00000000000E+00  0.87393849807E+02  0.12349474707E+03  0.87254040427E+02 0.  0.
       11    1    3    3    0    0 -0.13148030874E+02  0.29045125308E+02  0.85845447927E+02  0.91574728773E+02  0.00000000000E+00 0. -1.
      -12    1    3    3    0    0  0.13148030874E+02 -0.29045125308E+02  0.15484018801E+01  0.31920018302E+02  0.00000000000E+00 0.  1.
</event>
<event>
 5   0  0.2392100E+01  0.8050627E+02  0.7957747E-01  0.1326210E+00
       -4   -1    0    0    0  501  0.00000000000E+00  0.00000000000E+00  0.14947461430E+02  0.14947461430E+02  0.00000000000E+00 0.  1.
        3   -1    0    0  501    0  0.00000000000E+00  0.00000000000E+00 -0.10840068055E+03  0.10840068055E+03  0.00000000000E+00 0. -1.
      -24    2    1    2    0    0  0.00000000000E+00  0.00000000000E+00 -0.93453219123E+02  0.12334814198E+03  0.80506272837E+02 0.  0.
       11    1    3    3    0    0 -0.23868878596E+02  0.16921764022E+02 -0.89083039157E+02  0.93764904567E+02  0.00000000000E+00 0. -1.
      -12    1    3    3    0    0  0.23868878596E+02 -0.16921764022E+02 -0.43701799666E+01  0.29583237416E+02  0.00000000000E+00 0.  1.
</event>
<event>
 5   0  0.2392100E+01  0.8273100E+02  0.7957747E-01  0.1320385E+00
       -2   -1    0    0    0  501  0.00000000000E+00  0.00000000000E+00  0.10447455625E+02  0.10447455625E+02  0.00000000000E+00 0.  1.
        1   -1    0    0  501    0  0.00000000000E+00  0.00000000000E+00 -0.16378195177E+03  0.16378195177E+03  0.00000000000E+00 0. -1.
      -24    2    1    2    0    0  0.00000000000E+00  0.00000000000E+00 -0.15333449614E+03  0.17422940739E+03  0.82731002006E+02 0.  0.
       11    1    3    3    0    0  0.27581317847E+02  0.29782847460E+02 -0.93430275378E+02  0.10186738170E+03  0.00000000000E+00 0. -1.
      -12    1    3    3    0    0 -0.27581317847E+02 -0.29782847460E+02 -0.59904220766E+02  0.72362025695E+02  0.00000000000E+00 0.  1.
</event>
<event>
 5   0  0.2392100E+01  0.7745598E+02  0.7957747E-01  0.1334551E+00
        3   -1    0    0  501    0  0.00000000000E+00  0.00000000000E+00  0.27327610056E+02  0.27327610056E+02  0.00000000000E+00 0. -1.
       -4   -1    0    0    0  501  0.00000000000E+00  0.00000000000E+00 -0.54884317698E+02  0.54884317698E+02  0.00000000000E+00 0.  1.
      -24    2    1    2    0    0  0.00000000000E+00  0.00000000000E+00 -0.27556707643E+02  0.82211927754E+02  0.77455980588E+02 0.  0.
       11    1    3    3    0    0 -0.11378777833E+02  0.93538603782E+01  0.24238300927E+02  0.28363119024E+02  0.00000000000E+00 0. -1.
      -12    1    3    3    0    0  0.11378777833E+02 -0.93538603782E+01 -0.51795008569E+02  0.53848808730E+02  0.00000000000E+00 0.  1.
</event>
<event>
 5   0  0.2392100E+01  0.8600544E+02  0.7957747E-01  0.1312179E+00
        1   -1    0    0  501    0  0.00000000000E+00  0.00000000000E+00  0.25607233174E+03  0.25607233174E+03  0.00000000000E+00 0. -1.
       -2   -1    0    0    0  501  0.00000000000E+00  0.00000000000E+00 -0.72215304189E+01  0.72215304189E+01  0.00000000000E+00 0.  1.
      -24    2    1    2    0    0  0.00000000000E+00  0.00000000000E+00  0.24885080132E+03  0.26329386216E+03  0.86005444784E+02 0.  0.
       11    1    3    3    0    0  0.24582761954E+02 -0.34653019273E+02  0.14475298813E+03  0.15085944287E+03  0.00000000000E+00 0. -1.
      -12    1    3    3    0    0 -0.24582761954E+02  0.34653019273E+02  0.10409781320E+03  0.11243441930E+03  0.00000000000E+00 0.  1.
</event>
<event>
 4   0  0.2392100E+01  0.4877578E+02  0.7957747E-01  0.1443241E+00
       -2   -1    0    0    0  501  0.00000000000E+00  0.00000000000E+00  0.20479127580E+01  0.20479127580E+01  0.00000000000E+00 0.  1.
        1   -1    0    0  501    0  0.00000000000E+00  0.00000000000E+00 -0.29042697547E+03  0.29042697547E+03  0.00000000000E+00 0. -1.
       11    1    1    2    0    0 -0.71894710180E+01  0.19869976320E+02 -0.71176025354E+02  0.74246421043E+02  0.00000000000E+00 0. -1.
      -12    1    1    2    0    0  0.71894710180E+01 -0.19869976320E+02 -0.21720303736E+03  0.21822846718E+03  0.00000000000E+00 0.  1.
</event>
<event>
 5   0  0.2392100E+01  0.8009567E+02  0.7957747E-01  0.1327308E+00
        1   -1    0    0  501    0  0.00000000000E+00  0.00000000000E+00  0.12209201777E+02  0.12209201777E+02  0.00000000000E+00 0. -1.
       -2   -1    0    0    0  501  0.00000000000E+00  0.00000000000E+00 -0.13136233435E+03  0.13136233435E+03  0.00000000000E+00 0.  1.
      -24    2    1    2    0    0  0.00000000000E+00  0.00000000000E+00 -0.11915313258E+03  0.14357153613E+03  0.80095673941E+02 0.  0.
       11    1    3    3    0    0  0.17575510046E+02  0.35384764757E+01  0.46142227694E+01  0.18512439626E+02  0.00000000000E+00 0. -1.
      -12    1    3    3    0    0 -0.17575510046E+02 -0.35384764757E+01 -0.12376735535E+03  0.12505909650E+03  0.00000000000E+00 0.  1.
</event>
<event>
 5   0  0.2392100E+01  0.7958548E+02  0.7957747E-01  0.1328683E+00
        1   -1    0    0  501    0  0.00000000000E+00  0.00000000000E+00  0.97078549055E+01  0.97078549055E+01  0.00000000000E+00 0. -1.
       -2   -1    0    0    0  501  0.00000000000E+00  0.00000000000E+00 -0.16311142642E+03  0.16311142642E+03  0.00000000000E+00 0.  1.
      -24    2    1    2    0    0  0.00000000000E+00  0.00000000000E+00 -0.15340357151E+03  0.17281928132E+03  0.79585477598E+02 0.  0.
       11    1    3    3    0    0  0.33939821268E+02  0.28361678163E+01 -0.32014031107E+02  0.46742416533E+02  0.00000000000E+00 0. -1.
      -12    1    3    3    0    0 -0.33939821268E+02 -0.28361678163E+01 -0.12138954041E+03  0.12607686479E+03  0.00000000000E+00 0.  1.
</event>
<event>
 5   0  0.2392100E+01  0.7972847E+02  0.7957747E-01  0.1328296E+00
        1   -1    0    0  501    0  0.00000000000E+00  0.00000000000E+00  0.82504301164E+02  0.82504301164E+02  0.00000000000E+00 0. -1.
       -2   -1    0    0    0  501  0.00000000000E+00  0.00000000000E+00 -0.19261506037E+02  0.19261506037E+02  0.00000000000E+00 0.  1.
      -24    2    1    2    0    0  0.00000000000E+00  0.00000000000E+00  0.63242795127E+02  0.10176580720E+03  0.79728466558E+02 0.  0.
       11    1    3    3    0    0  0.26624110646E+02 -0.29558901838E+02  0.28345945222E+02  0.48847359766E+02  0.00000000000E+00 0. -1.
      -12    1    3    3    0    0 -0.26624110646E+02  0.29558901838E+02  0.34896849905E+02  0.52918447434E+02  0.00000000000E+00 0.  1.
</event>
<event>
 5   0  0.2392100E+01  0.8393515E+02  0.7957747E-01  0.1317318E+00
        1   -1    0    0  501    0  0.00000000000E+00  0.00000000000E+00  0.26082747681E+03  0.26082747681E+03  0.00000000000E+00 0. -1.
       -2   -1    0    0    0  501  0.00000000000E+00  0.00000000000E+00 -0.67526534243E+01  0.67526534243E+01  0.00000000000E+00 0.  1.
      -24    2    1    2    0    0  0.00000000000E+00  0.00000000000E+00  0.25407482339E+03  0.26758013024E+03  0.83935154839E+02 0.  0.
       11    1    3    3    0    0  0.27953475113E+02  0.24760117196E+02  0.65980488248E+02  0.75814807286E+02  0.00000000000E+00 0. -1.
      -12    1    3    3    0    0 -0.27953475113E+02 -0.24760117196E+02  0.18809433514E+03  0.19176532295E+03  0.00000000000E+00 0.  1.
</event>
<event>
 5   0  0.2392100E+01  0.8119884E+02  0.7957747E-01  0.1324374E+00
       -2   -1    0    0    0  501  0.00000000000E+00  0.00000000000E+00  0.90009781834E+02  0.90009781834E+02  0.00000000000E+00 0.  1.
        1   -1    0    0  501    0  0.00000000000E+00  0.00000000000E+00 -0.18312597356E+02  0.18312597356E+02  0.00000000000E+00 0. -1.
      -24    2    1    2    0    0  0.00000000000E+00  0.00000000000E+00  0.71697184477E+02  0.10832237919E+03  0.81198839717E+02 0.  0.
       11    1    3    3    0    0  0.18528327844E+02  0.93859387918E+01 -0.10688478630E+02  0.23358903123E+02  0.00000000000E+00 0. -1.
      -12    1    3    3    0    0 -0.18528327844E+02 -0.93859387918E+01  0.82385663108E+02  0.84963476067E+02  0.00000000000E+00 0.  1.
</event>
<event>
 5   0  0.2392100E+01  0.7735591E+02  0.7957747E-01  0.1334832E+00
        3   -1    0    0  501    0  0.00000000000E+00  0.00000000000E+00  0.45464287599E+02  0.45464287599E+02  0.00000000000E+00 0. -1.
       -4   -1    0    0    0  501  0.00000000000E+00  0.00000000000E+00 -0.32904602133E+02  0.32904602133E+02  0.00000000000E+00 0.  1.
      -24    2    1    2    0    0  0.00000000000E+00  0.00000000000E+00  0.12559685466E+02  0.78368889732E+02  0.77355912371E+02 0.  0.
       11    1    3    3    0    0  0.26841347764E+02  0.16602312271E+02  0.28930834384E+02  0.42814575797E+02  0.00000000000E+00 0. -1.
      -12    1    3    3    0    0 -0.26841347764E+02 -0.16602312271E+02 -0.16371148918E+02  0.35554313935E+02  0.00000000000E+00 0.  1.
</event>
<event>
 5   0  0.2392100E+01  0.8240411E+02  0.7957747E-01  0.1321228E+00
        3   -1    0    0  501    0  0.00000000000E+00  0.00000000000E+00  0.11067576249E+02  0.11067576249E+02  0.00000000000E+00 0. -1.
       -4   -1    0    0    0  501  0.00000000000E+00  0.00000000000E+00 -0.15338581486E+03  0.15338581486E+03  0.00000000000E+00 0.  1.
      -24    2    1    2    0    0  0.00000000000E+00  0.00000000000E+00 -0.14231823861E+03  0.16445339111E+03  0.82404106729E+02 0.  0.
       11    1    3    3    0    0  0.32492810293E+02 -0.71715613179E+01 -0.22667645681E+02  0.40262093502E+02  0.00000000000E+00 0. -1.
      -12    1    3    3    0    0 -0.32492810293E+02  0.71715613179E+01 -0.11965059293E+03  0.12419129761E+03  0.00000000000E+00 0.  1.
</event>
<event>
 5   0  0.2392100E+01  0.8071781E+02  0.7957747E-01  0.1325647E+00
       -2   -1    0    0    0  501  0.00000000000E+00  0.00000000000E+00  0.36932105109E+01  0.36932105109E+01  0.00000000000E+00 0.  1.
        1   -1    0    0  501    0  0.00000000000E+00  0.00000000000E+00 -0.44103670019E+03  0.44103670019E+03  0.00000000000E+00 0. -1.
      -24    2    1    2    0    0  0.00000000000E+00  0.00000000000E+00 -0.43734348968E+03  0.44472991070E+03  0.80717814065E+02 0.  0.
       11    1    3    3    0    0  0.37150096485E+02  0.15748859579E+02 -0.21411123477E+03  0.21788018979E+03  0.00000000000E+00 0. -1.
      -12    1    3    3    0    0 -0.37150096485E+02 -0.15748859579E+02 -0.22323225491E+03  0.22684972091E+03  0.00000000000E+00 0.  1.
</event>
<event>
 5   0  0.2392100E+01  0.7787124E+02  0.7957747E-01  0.1333390E+00
        1   -1    0    0  501    0  0.00000000000E+00  0.00000000000E+00  0.25462282930E+02  0.25462282930E+02  0.00000000000E+00 0. -1.
       -2   -1    0    0    0  501  0.00000000000E+00  0.00000000000E+00 -0.59538351659E+02  0.59538351659E+02  0.00000000000E+00 0.  1.
      -24    2    1    2    0    0  0.00000000000E+00  0.00000000000E+00 -0.34076068729E+02  0.85000634589E+02  0.77871236157E+02 0.  0.
       11    1    3    3    0    0 -0.14428255389E+02  0.25743671267E+02  0.10685520848E+02  0.31386167649E+02  0.00000000000E+00 0. -1.
      -12    1    3    3    0    0  0.14428255389E+02 -0.25743671267E+02 -0.44761589577E+02  0.53614466941E+02  0.00000000000E+00 0.  1.
</event>
<event>
 5   0  0.2392100E+01  0.8056896E+02  0.7957747E-01  0.1326043E+00
        1   -1    0    0  501    0  0.00000000000E+00  0.00000000000E+00  0.38672539406E+01  0.38672539406E+01  0.00000000000E+00 0. -1.
       -2   -1    0    0    0  501  0.00000000000E+00  0.00000000000E+00 -0.41963605927E+03  0.41963605927E+03  0.00000000000E+00 0.  1.
      -24    2    1    2    0    0  0.00000000000E+00  0.00000000000E+00 -0.41576880533E+03  0.42350331321E+03  0.80568956896E+02 0.  0.
       11    1    3    3    0    0 -0.25399476031E+02 -0.10029328944E+02 -0.52209652394E+02  0.58920018880E+02  0.00000000000E+00 0. -1.
      -12    1    3    3    0    0  0.25399476031E+02  0.10029328944E+02 -0.36355915293E+03  0.36458329433E+03  0.00000000000E+00 0.  1.
</event>
<event>
 5   0  0.2392100E+01  0.8147907E+02  0.7957747E-01  0.1323637E+00
        1   -1    0    0  501    0  0.00000000000E+00  0.00000000000E+00  0.47463917274E+02  0.47463917274E+02  0.00000000000E+00 0. -1.
       -2   -1    0    0    0  501  0.00000000000E+00  0.00000000000E+00 -0.34967817483E+02  0.34967817483E+02  0.00000000000E+00 0.  1.
      -24    2    1    2    0    0  0.00000000000E+00  0.00000000000E+00  0.12496099792E+02  0.82431734757E+02  0.81479067159E+02 0.  0.
       11    1    3    3    0    0 -0.16900263433E+02  0.61264407333E+00  0.43745071105E+02  0.46900165062E+02  0.00000000000E+00 0. -1.
      -12    1    3    3    0    0  0.16900263433E+02 -0.61264407333E+00 -0.31248971313E+02  0.35531569695E+02  0.00000000000E+00 0.  1.
</event>
<event>
 5   0  0.2392100E+01  0.8045086E+02  0.7957747E-01  0.1326357E+00
       -4   -1    0    0    0  501  0.00000000000E+00  0.00000000000E+00  0.64943718202E+02  0.64943718202E+02  0.00000000000E+00 0.  1.
        3   -1    0    0  501    0  0.00000000000E+00  0.00000000000E+00 -0.24915194618E+02  0.24915194618E+02  0.00000000000E+00 0. -1.
      -24    2    1    2    0    0  0.00000000000E+00  0.00000000000E+00  0.40028523583E+02  0.89858912820E+02  0.80450863966E+02 0.  0.
       11    1    3    3    0    0  0.27346920105E+02 -0.66128306955E+01 -0.12096628869E+02  0.30625348962E+02  0.00000000000E+00 0. -1.
      -12    1    3    3    0    0 -0.27346920105E+02  0.66128306955E+01  0.52125152453E+02  0.59233563858E+02  0.00000000000E+00 0.  1.
</event>
<event>
 5   0  0.2392100E+01  0.9359292E+02  0.7957747E-01  0.1294654E+00
        1   -1    0    0  501    0  0.00000000000E+00  0.00000000000E+00  0.10560893812E+03  0.10560893812E+03  0.00000000000E+00 0. -1.
       -2   -1    0    0    0  501  0.00000000000E+00  0.00000000000E+00 -0.20736017310E+02  0.20736017310E+02  0.00000000000E+00 0.  1.
      -24    2    1    2    0    0  0.00000000000E+00  0.00000000000E+00  0.84872920810E+02  0.12634495543E+03  0.93592922146E+02 0.  0.
       11    1    3    3    0    0  0.34259648433E+02  0.49666172384E+01  0.84943924309E+02  0.91727101091E+02  0.00000000000E+00 0. -1.
      -12    1    3    3    0    0 -0.34259648433E+02 -0.49666172384E+01 -0.71003498779E-01  0.34617854339E+02  0.00000000000E+00 0.  1.
</event>
<event>
 5   0  0.2392100E+01  0.8024447E+02  0.7957747E-01  0.1326909E+00
        1   -1    0    0  501    0  0.00000000000E+00  0.00000000000E+00  0.56303801835E+01  0.56303801835E+01  0.00000000000E+00 0. -1.
       -2   -1    0    0    0  501  0.00000000000E+00  0.00000000000E+00 -0.28591210760E+03  0.28591210760E+03  0.00000000000E+00 0.  1.
      -24    2    1    2    0    0  0.00000000000E+00  0.00000000000E+00 -0.28028172742E+03  0.29154248779E+03  0.80244473078E+02 0.  0.
       11    1    3    3    0    0 -0.36665833254E+02  0.16149315315E+02 -0.14794175679E+03  0.15327082931E+03  0.00000000000E+00 0. -1.
      -12    1    3    3    0    0  0.36665833254E+02 -0.16149315315E+02 -0.13233997063E+03  0.13827165848E+03  0.00000000000E+00 0.  1.
</event>
<event>
 5   0  0.2392100E+01  0.8254409E+02  0.7957747E-01  0.1320866E+00
        1   -1    0    0  501    0  0.00000000000E+00  0.00000000000E+00  0.22132131678E+03  0.22132131678E+03  0.00000000000E+00 0. -1.
       -2   -1    0    0    0  501  0.00000000000E+00  0.00000000000E+00 -0.76964186521E+01  0.76964186521E+01  0.00000000000E+00 0.  1.
      -24    2    1    2    0    0  0.00000000000E+00  0.00000000000E+00  0.21362489813E+03  0.22901773543E+03  0.82544085447E+02 0.  0.
       11    1    3    3    0    0 -0.19131606405E+02  0.32833333284E+02  0.15149253856E+03  0.15618590006E+03  0.00000000000E+00 0. -1.
      -12    1    3    3    0    0  0.19131606405E+02 -0.32833333284E+02  0.62132359565E+02  0.72831835370E+02  0.00000000000E+00 0.  1.
</event>
<event>
 5   0  0.2392100E+01  0.8007066E+02  0.7957747E-01  0.1327375E+00
       -2   -1    0    0    0  501  0.00000000000E+00  0.00000000000E+00  0.17700331021E+02  0.17700331021E+02  0.00000000000E+00 0.  1.
        1   -1    0    0  501    0  0.00000000000E+00  0.00000000000E+00 -0.90553535076E+02  0.90553535076E+02  0.00000000000E+00 0. -1.
      -24    2    1    2    0    0  0.00000000000E+00  0.00000000000E+00 -0.72853204055E+02  0.10825386610E+03  0.80070657447E+02 0.  0.
       11    1    3    3    0    0 -0.33426124374E+02  0.68994137969E+01 -0.64718842053E+02  0.73167179925E+02  0.00000000000E+00 0. -1.
      -12    1    3    3    0    0  0.33426124374E+02 -0.68994137969E+01 -0.81343620020E+01  0.35086686173E+02  0.00000000000E+00 0.  1.
</event>
<event>
 5   0  0.2392100E+01  0.6532331E+02  0.7957747E-01  0.1372630E+00
       -2   -1    0    0    0  501  0.00000000000E+00  0.00000000000E+00  0.94749046633E+01  0.94749046633E+01  0.00000000000E+00 0.  1.
        1   -1    0    0  501    0  0.00000000000E+00  0.00000000000E+00 -0.11259043172E+03  0.11259043172E+03  0.00000000000E+00 0. -1.
      -24    2    1    2    0    0  0.00000000000E+00  0.00000000000E+00 -0.10311552705E+03  0.12206533638E+03  0.65323306913E+02 0.  0.
       11    1    3    3    0    0 -0.15849721680E+02  0.19500635560E+02 -0.90544429766E+02  0.93966920915E+02  0.00000000000E+00 0. -1.
      -12    1    3    3    0    0  0.15849721680E+02 -0.19500635560E+02 -0.12571097286E+02  0.28098415464E+02  0.00000000000E+00 0.  1.
</event>
<event>
 5   0  0.2392100E+01  0.8749099E+02  0.7957747E-01  0.1308591E+00
        1   -1    0    0  501    0  0.00000000000E+00  0.00000000000E+00  0.34796097549E+03  0.34796097549E+03  0.00000000000E+00 0. -1.
       -2   -1    0    0    0  501  0.00000000000E+00  0.00000000000E+00 -0.54996641820E+01  0.54996641820E+01  0.00000000000E+00 0.  1.
      -24    2    1    2    0    0  0.00000000000E+00  0.00000000000E+00  0.34246131131E+03  0.35346063967E+03  0.87490994134E+02 0.  0.
       11    1    3    3    0    0  0.19904350157E+02 -0.38923225986E+02  0.17757718030E+03  0.18287934722E+03  0.00000000000E+00 0. -1.
      -12    1    3    3    0    0 -0.19904350157E+02  0.38923225986E+02  0.16488413101E+03  0.17058129245E+03  0.00000000000E+00 0.  1.
</event>
<event>
 5   0  0.2392100E+01  0.8108070E+02  0.7957747E-01  0.1324685E+00
        1   -1    0    0  501    0  0.00000000000E+00  0.00000000000E+00  0.15705376505E+03  0.15705376505E+03  0.00000000000E+00 0. -1.
       -2   -1    0    0    0  501  0.00000000000E+00  0.00000000000E+00 -0.10464697693E+02  0.10464697693E+02  0.00000000000E+00 0.  1.
      -24    2    1    2    0    0  0.00000000000E+00  0.00000000000E+00  0.14658906735E+03  0.16751846274E+03  0.81080704802E+02 0.  0.
       11    1    3    3    0    0  0.79859559237E+01 -0.28530478851E+02  0.13046747001E+03  0.13378910436E+03  0.00000000000E+00 0. -1.
      -12    1    3    3    0    0 -0.79859559237E+01  0.28530478851E+02  0.16121597340E+02  0.33729358374E+02  0.00000000000E+00 0.  1.
</event>
<event>
 5   0  0.2392100E+01  0.8059482E+02  0.7957747E-01  0.1325974E+00
        1   -1    0    0  501    0  0.00000000000E+00  0.00000000000E+00  0.12109800467E+03  0.12109800467E+03  0.00000000000E+00 0. -1.
       -2   -1    0    0    0  501  0.00000000000E+00  0.00000000000E+00 -0.13409644197E+02  0.13409644197E+02  0.00000000000E+00 0.  1.
      -24    2    1    2    0    0  0.00000000000E+00  0.00000000000E+00  0.10768836047E+03  0.13450764887E+03  0.80594817589E+02 0.  0.
       11    1    3    3    0    0  0.25797853351E+02  0.23128106657E+02  0.88187093964E+02  0.94749153542E+02  0.00000000000E+00 0. -1.
      -12    1    3    3    0    0 -0.25797853351E+02 -0.23128106657E+02  0.19501266510E+02  0.39758495325E+02  0.00000000000E+00 0.  1.
</event>
<event>
 5   0  0.2392100E+01  0.6608270E+02  0.7957747E-01  0.1369978E+00
        1   -1    0    0  501    0  0.00000000000E+00  0.00000000000E+00  0.41531243346E+03  0.41531243346E+03  0.00000000000E+00 0. -1.
       -2   -1    0    0    0  501  0.00000000000E+00  0.00000000000E+00 -0.26286973187E+01  0.26286973187E+01  0.00000000000E+00 0.  1.
      -24    2    1    2    0    0  0.00000000000E+00  0.00000000000E+00  0.41268373614E+03  0.41794113078E+03  0.66082696079E+02 0.  0.
       11    1    3    3    0    0  0.26364400341E+02 -0.19851119668E+02  0.19617901115E+03  0.19893554980E+03  0.00000000000E+00 0. -1.
      -12    1    3    3    0    0 -0.26364400341E+02  0.19851119668E+02  0.21650472500E+03  0.21900558099E+03  0.00000000000E+00 0.  1.
</event>
<event>
 5   0  0.2392100E+01  0.8112491E+02  0.7957747E-01  0.1324569E+00
        1   -1    0    0  501    0  0.00000000000E+00  0.00000000000E+00  0.93678422497E+01  0.93678422497E+01  0.00000000000E+00 0. -1.
       -2   -1    0    0    0  501  0.00000000000E+00  0.00000000000E+00 -0.17563411347E+03  0.17563411347E+03  0.00000000000E+00 0.  1.
      -24    2    1    2    0    0  0.00000000000E+00  0.00000000000E+00 -0.16626627122E+03  0.18500195572E+03  0.81124907856E+02 0.  0.
       11    1    3    3    0    0 -0.32892919426E+01  0.28616024076E+02 -0.18005535360E+02  0.33969038535E+02  0.00000000000E+00 0. -1.
      -12    1    3    3    0    0  0.32892919426E+01 -0.28616024076E+02 -0.14826073586E+03  0.15103291719E+03  0.00000000000E+00 0.  1.
</event>
<event>
 5   0  0.2392100E+01  0.8157422E+02  0.7957747E-01  0.1323387E+00
       -2   -1    0    0    0  501  0.00000000000E+00  0.00000000000E+00  0.11724529730E+02  0.11724529730E+02  0.00000000000E+00 0.  1.
        1   -1    0    0  501    0  0.00000000000E+00  0.00000000000E+00 -0.14188957146E+03  0.14188957146E+03  0.00000000000E+00 0. -1.
      -24    2    1    2    0    0  0.00000000000E+00  0.00000000000E+00 -0.13016504173E+03  0.15361410119E+03  0.81574223846E+02 0.  0.
       11    1    3    3    0    0 -0.32919658733E+02  0.24016710825E+02 -0.68388547597E+02  0.79608415211E+02  0.00000000000E+00 0. -1.
      -12    1    3    3    0    0  0.32919658733E+02 -0.24016710825E+02 -0.61776494137E+02  0.74005685983E+02  0.00000000000E+00 0.  1.
</event>
<event>
 5   0  0.2392100E+01  0.8065986E+02  0.7957747E-01  0.1325801E+00
        1   -1    0    0  501    0  0.00000000000E+00  0.00000000000E+00  0.22925119884E+03  0.22925119884E+03  0.00000000000E+00 0. -1.
       -2   -1    0    0    0  501  0.00000000000E+00  0.00000000000E+00 -0.70948517976E+01  0.70948517976E+01  0.00000000000E+00 0.  1.
      -24    2    1    2    0    0  0.00000000000E+00  0.00000000000E+00  0.22215634704E+03  0.23634605064E+03  0.80659860654E+02 0.  0.
       11    1    3    3    0    0 -0.34141636386E+02 -0.14770923039E+02  0.15672394145E+03  0.16107832048E+03  0.00000000000E+00 0. -1.
      -12    1    3    3    0    0  0.34141636386E+02  0.14770923039E+02  0.65432405588E+02  0.75267730161E+02  0.00000000000E+00 0.  1.
</event>
<event>
 5   0  0.2392100E+01  0.7741788E+02  0.7957747E-01  0.1334658E+00
       -2   -1    0    0    0  501  0.00000000000E+00  0.00000000000E+00  0.34105458376E+02  0.34105458376E+02  0.00000000000E+00 0.  1.
        1   -1    0    0  501    0  0.00000000000E+00  0.00000000000E+00 -0.43933794994E+02  0.43933794994E+02  0.00000000000E+00 0. -1.
      -24    2    1    2    0    0  0.00000000000E+00  0.00000000000E+00 -0.98283366184E+01  0.78039253370E+02  0.77417884664E+02 0.  0.
       11    1    3    3    0    0 -0.43714123727E+01  0.12224935406E+02 -0.41673607412E+02  0.43649144854E+02  0.00000000000E+00 0. -1.
      -12    1    3    3    0    0  0.43714123727E+01 -0.12224935406E+02  0.31845270793E+02  0.34390108516E+02  0.00000000000E+00 0.  1.
</event>
<event>
 5   0  0.2392100E+01  0.7954115E+02  0.7957747E-01  0.1328803E+00
       -2   -1    0    0    0  501  0.00000000000E+00  0.00000000000E+00  0.17020483671E+02  0.17020483671E+02  0.00000000000E+00 0.  1.
        1   -1    0    0  501    0  0.00000000000E+00  0.00000000000E+00 -0.92929118381E+02  0.92929118381E+02  0.00000000000E+00 0. -1.
      -24    2    1    2    0    0  0.00000000000E+00  0.00000000000E+00 -0.75908634710E+02  0.10994960205E+03  0.79541147640E+02 0.  0.
       11    1    3    3    0    0 -0.31148616964E+02 -0.24673320564E+02 -0.40221225873E+02  0.56539862903E+02  0.00000000000E+00 0. -1.
      -12    1    3    3    0    0  0.31148616964E+02  0.24673320564E+02 -0.35687408837E+02  0.53409739149E+02  0.00000000000E+00 0.  1.
</event>
<event>
 5   0  0.2392100E+01  0.8472310E+02  0.7957747E-01  0.1315343E+00
       -2   -1    0    0    0  501  0.00000000000E+00  0.00000000000E+00  0.38514226572E+02  0.38514226572E+02  0.00000000000E+00 0.  1.
        1   -1    0    0  501    0  0.00000000000E+00  0.00000000000E+00 -0.46593198857E+02  0.46593198857E+02  0.00000000000E+00 0. -1.
      -24    2    1    2    0    0  0.00000000000E+00  0.00000000000E+00 -0.80789722855E+01  0.85107425429E+02  0.84723102339E+02 0.  0.
       11    1    3    3    0    0 -0.28280499018E+02  0.20495871368E+02 -0.28119743815E+02  0.44839573594E+02  0.00000000000E+00 0. -1.
      -12    1    3    3    0    0  0.28280499018E+02 -0.20495871368E+02  0.20040771529E+02  0.40267851835E+02  0.00000000000E+00 0.  1.
</event>
<event>
 5   0  0.2392100E+01  0.8207201E+02  0.7957747E-01  0.1322089E+00
        1   -1    0    0  501    0  0.00000000000E+00  0.00000000000E+00  0.23422420313E+02  0.23422420313E+02  0.00000000000E+00 0. -1.
       -2   -1    0    0    0  501  0.00000000000E+00  0.00000000000E+00 -0.71894948931E+02  0.71894948931E+02  0.00000000000E+00 0.  1.
      -24    2    1    2    0    0  0.00000000000E+00  0.00000000000E+00 -0.48472528618E+02  0.95317369244E+02  0.82072010143E+02 0.  0.
       11    1    3    3    0    0  0.36915698547E+02 -0.84651565149E+01 -0.58905379051E+01  0.38329180931E+02  0.00000000000E+00 0. -1.
      -12    1    3    3    0    0 -0.36915698547E+02  0.84651565149E+01 -0.42581990713E+02  0.56988188312E+02  0.00000000000E+00 0.  1.
</event>
<event>
 5   0  0.2392100E+01  0.8027503E+02  0.7957747E-01  0.1326827E+00
        1   -1    0    0  501    0  0.00000000000E+00  0.00000000000E+00  0.90938238261E+01  0.90938238261E+01  0.00000000000E+00 0. -1.
       -2   -1    0    0    0  501  0.00000000000E+00  0.00000000000E+00 -0.17715539290E+03  0.17715539290E+03  0.00000000000E+00 0.  1.
      -24    2    1    2    0    0  0.00000000000E+00  0.00000000000E+00 -0.16806156908E+03  0.18624921673E+03  0.80275025578E+02 0.  0.
       11    1    3    3    0    0  0.25829578466E+02 -0.30675279573E+02 -0.87968213039E+02  0.96677538270E+02  0.00000000000E+00 0. -1.
      -12    1    3    3    0    0 -0.25829578466E+02  0.30675279573E+02 -0.80093356037E+02  0.89571678459E+02  0.00000000000E+00 0.  1.
</event>
<event>
 5   0  0.2392100E+01  0.8127233E+02  0.7957747E-01  0.1324180E+00
       -4   -1    0    0    0  501  0.00000000000E+00  0.00000000000E+00  0.10931894713E+02  0.10931894713E+02  0.00000000000E+00 0.  1.
        3   -1    0    0  501    0  0.00000000000E+00  0.00000000000E+00 -0.15105322647E+03  0.15105322647E+03  0.00000000000E+00 0. -1.
      -24    2    1    2    0    0  0.00000000000E+00  0.00000000000E+00 -0.14012133176E+03  0.16198512118E+03  0.81272331524E+02 0.  0.
       11    1    3    3    0    0 -0.18608323954E+01  0.37934332196E+02 -0.98862505758E+02  0.10590689921E+03  0.00000000000E+00 0. -1.
      -12    1    3    3    0    0  0.18608323954E+01 -0.37934332196E+02 -0.41258826000E+02  0.56078221970E+02  0.00000000000E+00 0.  1.
</event>
<event>
 5   0  0.2392100E+01  0.8240446E+02  0.7957747E-01  0.1321227E+00
        1   -1    0    0  501    0  0.00000000000E+00  0.00000000000E+00  0.28684838487E+03  0.28684838487E+03  0.00000000000E+00 0. -1.
       -2   -1    0    0    0  501  0.00000000000E+00  0.00000000000E+00 -0.59181924835E+01  0.59181924835E+01  0.00000000000E+00 0.  1.
      -24    2    1    2    0    0  0.00000000000E+00  0.00000000000E+00  0.28093019238E+03  0.29276657735E+03  0.82404464812E+02 0.  0.
       11    1    3    3    0    0  0.25539896496E+02  0.27381115290E+02  0.20154972026E+03  0.20499829639E+03  0.00000000000E+00 0. -1.
      -12    1    3    3    0    0 -0.25539896496E+02 -0.27381115290E+02  0.79380472126E+02  0.87768280959E+02  0.00000000000E+00 0.  1.
</event>
<event>
 5   0  0.2392100E+01  0.7733287E+02  0.7957747E-01  0.1334897E+00
        1   -1    0    0  501    0  0.00000000000E+00  0.00000000000E+00  0.97430567238E+01  0.97430567238E+01  0.00000000000E+00 0. -1.
       -2   -1    0    0    0  501  0.00000000000E+00  0.00000000000E+00 -0.15345215847E+03  0.15345215847E+03  0.00000000000E+00 0.  1.
      -24    2    1    2    0    0  0.00000000000E+00  0.00000000000E+00 -0.14370910175E+03  0.16319521519E+03  0.77332867123E+02 0.  0.
       11    1    3    3    0    0  0.19548877500E+02  0.16719958718E+02 -0.10933949382E+02  0.27951151678E+02  0.00000000000E+00 0. -1.
      -12    1    3    3    0    0 -0.19548877500E+02 -0.16719958718E+02 -0.13277515236E+03  0.13524406352E+03  0.00000000000E+00 0.  1.
</event>
<event>
 5   0  0.2392100E+01  0.8039957E+02  0.7957747E-01  0.1326494E+00
       -2   -1    0    0    0  501  0.00000000000E+00  0.00000000000E+00  0.20168780122E+03  0.20168780122E+03  0.00000000000E+00 0.  1.
        1   -1    0    0  501    0  0.00000000000E+00  0.00000000000E+00 -0.80124963529E+01  0.80124963529E+01  0.00000000000E+00 0. -1.
      -24    2    1    2    0    0  0.00000000000E+00  0.00000000000E+00  0.19367530486E+03  0.20970029757E+03  0.80399571434E+02 0.  0.
       11    1    3    3    0    0 -0.30695089097E+02  0.24411559138E+02  0.11985960078E+03  0.12611279322E+03  0.00000000000E+00 0. -1.
      -12    1    3    3    0    0  0.30695089097E+02 -0.24411559138E+02  0.73815704083E+02  0.83587504351E+02  0.00000000000E+00 0.  1.
</event>
<event>
 5   0  0.2392100E+01  0.8347133E+02  0.7957747E-01  0.1318493E+00
       -2   -1    0    0    0  501  0.00000000000E+00  0.00000000000E+00  0.26898318854E+03  0.26898318854E+03  0.00000000000E+00 0.  1.
        1   -1    0    0  501    0  0.00000000000E+00  0.00000000000E+00 -0.64757423426E+01  0.64757423426E+01  0.00000000000E+00 0. -1.
      -24    2    1    2    0    0  0.00000000000E+00  0.00000000000E+00  0.26250744619E+03  0.27545893088E+03  0.83471332168E+02 0.  0.
       11    1    3    3    0    0 -0.34254215936E+02  0.15352034352E+02  0.71049014977E+02  0.80355452816E+02  0.00000000000E+00 0. -1.
      -12    1    3    3    0    0  0.34254215936E+02 -0.15352034352E+02  0.19145843122E+03  0.19510347806E+03  0.00000000000E+00 0.  1.
</event>
<event>
 5   0  0.2392100E+01  0.7557672E+02  0.7957747E-01  0.1339910E+00
        1   -1    0    0  501    0  0.00000000000E+00  0.00000000000E+00  0.58773632617E+03  0.58773632617E+03  0.00000000000E+00 0. -1.
       -2   -1    0    0    0  501  0.00000000000E+00  0.00000000000E+00 -0.24295932767E+01  0.24295932767E+01  0.00000000000E+00 0.  1.
      -24    2    1    2    0    0  0.00000000000E+00  0.00000000000E+00  0.58530673290E+03  0.59016591945E+03  0.75576721986E+02 0.  0.
       11    1    3    3    0    0 -0.21354954667E+02  0.28099914780E+02  0.18721362422E+03  0.19051136552E+03  0.00000000000E+00 0. -1.
      -12    1    3    3    0    0  0.21354954667E+02 -0.28099914780E+02  0.39809310868E+03  0.39965455393E+03  0.00000000000E+00 0.  1.
</event>
<event>
 5   0  0.2392100E+01  0.7991779E+02  0.7957747E-01  0.1327786E+00
       -2   -1    0    0    0  501  0.00000000000E+00  0.00000000000E+00  0.86454013367E+01  0.86454013367E+01  0.00000000000E+00 0.  1.
        1   -1    0    0  501    0  0.00000000000E+00  0.00000000000E+00 -0.18468934018E+03  0.18468934018E+03  0.00000000000E+00 0. -1.
      -24    2    1    2    0    0  0.00000000000E+00  0.00000000000E+00 -0.17604393884E+03  0.19333474152E+03  0.79917794475E+02 0.  0.
       11    1    3    3    0    0  0.22521496673E+02 -0.28702322033E+02 -0.12745313399E+03  0.13257202747E+03  0.00000000000E+00 0. -1.
      -12    1    3    3    0    0 -0.22521496673E+02  0.28702322033E+02 -0.48590804849E+02  0.60762714047E+02  0.00000000000E+00 0.  1.
</event>
<event>
 5   0  0.2392100E+01  0.8074905E+02  0.7957747E-01  0.1325564E+00
        1   -1    0    0  501    0  0.00000000000E+00  0.00000000000E+00  0.95827754500E+02  0.95827754500E+02  0.00000000000E+00 0. -1.
       -2   -1    0    0    0  501  0.00000000000E+00  0.00000000000E+00 -0.17010754138E+02  0.17010754138E+02  0.00000000000E+00 0.  1.
      -24    2    1    2    0    0  0.00000000000E+00  0.00000000000E+00  0.78817000362E+02  0.11283850864E+03  0.80749052537E+02 0.  0.
       11    1    3    3    0    0 -0.39503017043E+01  0.39797067732E+02  0.31667008924E+02  0.51011870558E+02  0.00000000000E+00 0. -1.
      -12    1    3    3    0    0  0.39503017043E+01 -0.39797067732E+02  0.47149991438E+02  0.61826638080E+02  0.00000000000E+00 0.  1.
</event>
<event>
 5   0  0.2392100E+01  0.6035970E+02  0.7957747E-01  0.1391042E+00
       -2   -1    0    0    0  501  0.00000000000E+00  0.00000000000E+00  0.13323818846E+02  0.13323818846E+02  0.00000000000E+00 0.  1.
        1   -1    0    0  501    0  0.00000000000E+00  0.00000000000E+00 -0.68360535371E+02  0.68360535371E+02  0.00000000000E+00 0. -1.
      -24    2    1    2    0    0  0.00000000000E+00  0.00000000000E+00 -0.55036716525E+02  0.81684354217E+02  0.60359701441E+02 0.  0.
       11    1    3    3    0    0  0.23431479429E+02  0.67651349830E+01 -0.51575860296E+02  0.57051473643E+02  0.00000000000E+00 0. -1.
      -12    1    3    3    0    0 -0.23431479429E+02 -0.67651349830E+01 -0.34608562284E+01  0.24632880574E+02  0.00000000000E+00 0.  1.
</event>
<event>
 5   0  0.2392100E+01  0.8124726E+02  0.7957747E-01  0.1324246E+00
        3   -1    0    0  501    0  0.00000000000E+00  0.00000000000E+00  0.36351321453E+03  0.36351321453E+03  0.00000000000E+00 0. -1.
       -4   -1    0    0    0  501  0.00000000000E+00  0.00000000000E+00 -0.45398059270E+01  0.45398059270E+01  0.00000000000E+00 0.  1.
      -24    2    1    2    0    0  0.00000000000E+00  0.00000000000E+00  0.35897340860E+03  0.36805302045E+03  0.81247263236E+02 0.  0.
       11    1    3    3    0    0  0.85851177698E-01 -0.36408432971E+02  0.97858262155E+02  0.10441178494E+03  0.00000000000E+00 0. -1.
      -12    1    3    3    0    0 -0.85851177698E-01  0.36408432971E+02  0.26111514644E+03  0.26364123551E+03  0.00000000000E+00 0.  1.
</event>
<event>
 5   0  0.2392100E+01  0.7943307E+02  0.7957747E-01  0.1329096E+00
        3   -1    0    0  501    0  0.00000000000E+00  0.00000000000E+00  0.11424467942E+02  0.11424467942E+02  0.00000000000E+00 0. -1.
       -4   -1    0    0    0  501  0.00000000000E+00  0.00000000000E+00 -0.13807236204E+03  0.13807236204E+03  0.00000000000E+00 0.  1.
      -24    2    1    2    0    0  0.00000000000E+00  0.00000000000E+00 -0.12664789410E+03  0.14949682998E+03  0.79433073056E+02 0.  0.
       11    1    3    3    0    0 -0.26324821004E+02 -0.27543342538E+02 -0.42217191101E+02  0.56867593087E+02  0.00000000000E+00 0. -1.
      -12    1    3    3    0    0  0.26324821004E+02  0.27543342538E+02 -0.84430702998E+02  0.92629236896E+02  0.00000000000E+00 0.  1.
</event>
<event>
 5   0  0.2392100E+01  0.8070665E+02  0.7957747E-01  0.1325676E+00
       -2   -1    0    0    0  501  0.00000000000E+00  0.00000000000E+00  0.11371859420E+02  0.11371859420E+02  0.00000000000E+00 0.  1.
        1   -1    0    0  501    0  0.00000000000E+00  0.00000000000E+00 -0.14319475766E+03  0.14319475766E+03  0.00000000000E+00 0. -1.
      -24    2    1    2    0    0  0.00000000000E+00  0.00000000000E+00 -0.13182289824E+03  0.15456661708E+03  0.80706645421E+02 0.  0.
       11    1    3    3    0    0  0.22570802278E+02 -0.31908731842E+02 -0.85137880858E+02  0.93680665242E+02  0.00000000000E+00 0. -1.
      -12    1    3    3    0    0 -0.22570802278E+02  0.31908731842E+02 -0.46685017385E+02  0.60885951840E+02  0.00000000000E+00 0.  1.
</event>
<event>
 5   0  0.2392100E+01  0.8037520E+02  0.7957747E-01  0.1326559E+00
        1   -1    0    0  501    0  0.00000000000E+00  0.00000000000E+00  0.14126784635E+02  0.14126784635E+02  0.00000000000E+00 0. -1.
       -2   -1    0    0    0  501  0.00000000000E+00  0.00000000000E+00 -0.11432490176E+03  0.11432490176E+03  0.00000000000E+00 0.  1.
      -24    2    1    2    0    0  0.00000000000E+00  0.00000000000E+00 -0.10019811713E+03  0.12845168640E+03  0.80375201789E+02 0.  0.
       11    1    3    3    0    0  0.27147177724E+02 -0.65662091818E+00 -0.27537833786E+01  0.27294390125E+02  0.00000000000E+00 0. -1.
      -12    1    3    3    0    0 -0.27147177724E+02  0.65662091818E+00 -0.97444333749E+02  0.10115729627E+03  0.00000000000E+00 0.  1.
</event>
<event>
 5   0  0.2392100E+01  0.7734958E+02  0.7957747E-01  0.1334850E+00
       -2   -1    0    0    0  501  0.00000000000E+00  0.00000000000E+00  0.31959467449E+02  0.31959467449E+02  0.00000000000E+00 0.  1.
        1   -1    0    0  501    0  0.00000000000E+00  0.00000000000E+00 -0.46801138572E+02  0.46801138572E+02  0.00000000000E+00 0. -1.
      -24    2    1    2    0    0  0.00000000000E+00  0.00000000000E+00 -0.14841671123E+02  0.78760606021E+02  0.77349582152E+02 0.  0.
       11    1    3    3    0    0  0.14782585135E+02 -0.32896142333E+02 -0.21641944851E+02  0.42060132912E+02  0.00000000000E+00 0. -1.
      -12    1    3    3    0    0 -0.14782585135E+02  0.32896142333E+02  0.68002737282E+01  0.36700473109E+02  0.00000000000E+00 0.  1.
</event>
<event>
 5   0  0.2392100E+01  0.7868635E+02  0.7957747E-01  0.1331135E+00
        3   -1    0    0  501    0  0.00000000000E+00  0.00000000000E+00  0.15210671224E+03  0.15210671224E+03  0.00000000000E+00 0. -1.
       -4   -1    0    0    0  501  0.00000000000E+00  0.00000000000E+00 -0.10176311462E+02  0.10176311462E+02  0.00000000000E+00 0.  1.
      -24    2    1    2    0    0  0.00000000000E+00  0.00000000000E+00  0.14193040077E+03  0.16228302370E+03  0.78686346444E+02 0.  0.
       11    1    3    3    0    0 -0.69991770558E+01 -0.34328709010E+02  0.10788375803E+03  0.11342995190E+03  0.00000000000E+00 0. -1.
      -12    1    3    3    0    0  0.69991770558E+01  0.34328709010E+02  0.34046642745E+02  0.48853071797E+02  0.00000000000E+00 0.  1.
</event>
<event>
 5   0  0.2392100E+01  0.8037637E+02  0.7957747E-01  0.1326556E+00
        3   -1    0    0  501    0  0.00000000000E+00  0.00000000000E+00  0.14566254880E+02  0.14566254880E+02  0.00000000000E+00 0. -1.
       -4   -1    0    0    0  501  0.00000000000E+00  0.00000000000E+00 -0.11087888666E+03  0.11087888666E+03  0.00000000000E+00 0.  1.
      -24    2    1    2    0    0  0.00000000000E+00  0.00000000000E+00 -0.96312631780E+02  0.12544514154E+03  0.80376367770E+02 0.  0.
       11    1    3    3    0    0  0.35688774490E+02  0.33045478764E+01 -0.19783723327E+02  0.40939032352E+02  0.00000000000E+00 0. -1.
      -12    1    3    3    0    0 -0.35688774490E+02 -0.33045478764E+01 -0.76528908454E+02  0.84506109189E+02  0.00000000000E+00 0.  1.
</event>
<event>
 5   0  0.2392100E+01  0.7988141E+02  0.7957747E-01  0.1327884E+00
        1   -1    0    0  501    0  0.00000000000E+00  0.00000000000E+00  0.14367345043E+03  0.14367345043E+03  0.00000000000E+00 0. -1.
       -2   -1    0    0    0  501  0.00000000000E+00  0.00000000000E+00 -0.11103373974E+02  0.11103373974E+02  0.00000000000E+00 0.  1.
      -24    2    1    2    0    0  0.00000000000E+00  0.00000000000E+00  0.13257007645E+03  0.15477682440E+03  0.79881413362E+02 0.  0.
       11    1    3    3    0    0  0.10997658972E+02 -0.36595780566E+02  0.88802746822E+02  0.96675371741E+02  0.00000000000E+00 0. -1.
      -12    1    3    3    0    0 -0.10997658972E+02  0.36595780566E+02  0.43767329630E+02  0.58101452659E+02  0.00000000000E+00 0.  1.
</event>
<event>
 5   0  0.2392100E+01  0.7730911E+02  0.7957747E-01  0.1334964E+00
        1   -1    0    0  501    0  0.00000000000E+00  0.00000000000E+00  0.34300396249E+01  0.34300396249E+01  0.00000000000E+00 0. -1.
       -2   -1    0    0    0  501  0.00000000000E+00  0.00000000000E+00 -0.43561436997E+03  0.43561436997E+03  0.00000000000E+00 0.  1.
      -24    2    1    2    0    0  0.00000000000E+00  0.00000000000E+00 -0.43218433034E+03  0.43904440959E+03  0.77309108135E+02 0.  0.
       11    1    3    3    0    0 -0.27539034307E+02  0.25041073729E+02 -0.15687685064E+03  0.16123213095E+03  0.00000000000E+00 0. -1.
      -12    1    3    3    0    0  0.27539034307E+02 -0.25041073729E+02 -0.27530747970E+03  0.27781227864E+03  0.00000000000E+00 0.  1.
</event>
<event>
 5   0  0.2392100E+01  0.8114973E+02  0.7957747E-01  0.1324503E+00
       -4   -1    0    0    0  501  0.00000000000E+00  0.00000000000E+00  0.19690476647E+02  0.19690476647E+02  0.00000000000E+00 0.  1.
        3   -1    0    0  501    0  0.00000000000E+00  0.00000000000E+00 -0.83609951587E+02  0.83609951587E+02  0.00000000000E+00 0. -1.
      -24    2    1    2    0    0  0.00000000000E+00  0.00000000000E+00 -0.63919474940E+02  0.10330042823E+03  0.81149733190E+02 0.  0.
       11    1    3    3    0    0  0.24461443930E+02 -0.19199196826E+02 -0.65138585597E+02  0.72180376360E+02  0.00000000000E+00 0. -1.
      -12    1    3    3    0    0 -0.24461443930E+02  0.19199196826E+02  0.12191106564E+01  0.31120051875E+02  0.00000000000E+00 0.  1.
</event>
<event>
 5   0  0.2392100E+01  0.7955628E+02  0.7957747E-01  0.1328762E+00
       -2   -1    0    0    0  501  0.00000000000E+00  0.00000000000E+00  0.26233677079E+02  0.26233677079E+02  0.00000000000E+00 0.  1.
        1   -1    0    0  501    0  0.00000000000E+00  0.00000000000E+00 -0.60315615027E+02  0.60315615027E+02  0.00000000000E+00 0. -1.
      -24    2    1    2    0    0  0.00000000000E+00  0.00000000000E+00 -0.34081937948E+02  0.86549292105E+02  0.79556278631E+02 0.  0.
       11    1    3    3    0    0  0.18921893144E+02  0.28379666996E+02 -0.39305925934E+02  0.52042284275E+02  0.00000000000E+00 0. -1.
      -12    1    3    3    0    0 -0.18921893144E+02 -0.28379666996E+02  0.52239879859E+01  0.34507007831E+02  0.00000000000E+00 0.  1.
</event>
<event>
 5   0  0.2392100E+01  0.7968235E+02  0.7957747E-01  0.1328421E+00
       -4   -1    0    0    0  501  0.00000000000E+00  0.00000000000E+00  0.96498251212E+02  0.96498251212E+02  0.00000000000E+00 0.  1.
        3   -1    0    0  501    0  0.00000000000E+00  0.00000000000E+00 -0.16449200910E+02  0.16449200910E+02  0.00000000000E+00 0. -1.
      -24    2    1    2    0    0  0.00000000000E+00  0.00000000000E+00  0.80049050302E+02  0.11294745212E+03  0.79682347397E+02 0.  0.
       11    1    3    3    0    0 -0.35072340394E+02  0.15847894108E+02  0.25424272474E+02  0.46126114503E+02  0.00000000000E+00 0. -1.
      -12    1    3    3    0    0  0.35072340394E+02 -0.15847894108E+02  0.54624777828E+02  0.66821337619E+02  0.00000000000E+00 0.  1.
</event>
<event>
 5   0  0.2392100E+01  0.8183105E+02  0.7957747E-01  0.1322716E+00
        3   -1    0    0  501    0  0.00000000000E+00  0.00000000000E+00  0.67446176622E+01  0.67446176622E+01  0.00000000000E+00 0. -1.
       -4   -1    0    0    0  501  0.00000000000E+00  0.00000000000E+00 -0.24820982042E+03  0.24820982042E+03  0.00000000000E+00 0.  1.
      -24    2    1    2    0    0  0.00000000000E+00  0.00000000000E+00 -0.24146520276E+03  0.25495443808E+03  0.81831053732E+02 0.  0.
       11    1    3    3    0    0  0.18289220740E+02 -0.12321678513E+01 -0.67645080782E+01  0.19538996966E+02  0.00000000000E+00 0. -1.
      -12    1    3    3    0    0 -0.18289220740E+02  0.12321678513E+01 -0.23470069468E+03  0.23541544111E+03  0.00000000000E+00 0.  1.
</event>
<event>
 5   0  0.2392100E+01  0.8094959E+02  0.7957747E-01  0.1325032E+00
        3   -1    0    0  501    0  0.00000000000E+00  0.00000000000E+00  0.63202829005E+02  0.63202829005E+02  0.00000000000E+00 0. -1.
       -4   -1    0    0    0  501  0.00000000000E+00  0.00000000000E+00 -0.25919865574E+02  0.25919865574E+02  0.00000000000E+00 0.  1.
      -24    2    1    2    0    0  0.00000000000E+00  0.00000000000E+00  0.37282963431E+02  0.89122694579E+02  0.80949585094E+02 0.  0.
       11    1    3    3    0    0 -0.21801663302E+02  0.48844022363E+01  0.55798680358E+02  0.60105429352E+02  0.00000000000E+00 0. -1.
      -12    1    3    3    0    0  0.21801663302E+02 -0.48844022363E+01 -0.18515716926E+02  0.29017265227E+02  0.00000000000E+00 0.  1.
</event>
<event>
 5   0  0.2392100E+01  0.7273787E+02  0.7957747E-01  0.1348350E+00
       -4   -1    0    0    0  501  0.00000000000E+00  0.00000000000E+00  0.15536324665E+03  0.15536324665E+03  0.00000000000E+00 0.  1.
        3   -1    0    0  501    0  0.00000000000E+00  0.00000000000E+00 -0.85135920314E+01  0.85135920314E+01  0.00000000000E+00 0. -1.
      -24    2    1    2    0    0  0.00000000000E+00  0.00000000000E+00  0.14684965462E+03  0.16387683868E+03  0.72737866305E+02 0.  0.
       11    1    3    3    0    0  0.11595544709E+02 -0.30018979023E+02  0.35250069203E+02  0.47730107244E+02  0.00000000000E+00 0. -1.
      -12    1    3    3    0    0 -0.11595544709E+02  0.30018979023E+02  0.11159958542E+03  0.11614673144E+03  0.00000000000E+00 0.  1.
</event>
<event>
 5   0  0.2392100E+01  0.8041369E+02  0.7957747E-01  0.1326457E+00
       -4   -1    0    0    0  501  0.00000000000E+00  0.00000000000E+00  0.11728272784E+02  0.11728272784E+02  0.00000000000E+00 0.  1.
        3   -1    0    0  501    0  0.00000000000E+00  0.00000000000E+00 -0.13783705421E+03  0.13783705421E+03  0.00000000000E+00 0. -1.
      -24    2    1    2    0    0  0.00000000000E+00  0.00000000000E+00 -0.12610878142E+03  0.14956532699E+03  0.80413694642E+02 0.  0.
       11    1    3    3    0    0  0.35302198015E+02 -0.19159168180E+02 -0.59690165303E+02  0.71946054401E+02  0.00000000000E+00 0. -1.
      -12    1    3    3    0    0 -0.35302198015E+02  0.19159168180E+02 -0.66418616120E+02  0.77619272590E+02  0.00000000000E+00 0.  1.
</event>
<event>
 5   0  0.2392100E+01  0.6638839E+02  0.7957747E-01  0.1368922E+00
        1   -1    0    0  501    0  0.00000000000E+00  0.00000000000E+00  0.55163516486E+02  0.55163516486E+02  0.00000000000E+00 0. -1.
       -2   -1    0    0    0  501  0.00000000000E+00  0.00000000000E+00 -0.19974336503E+02  0.19974336503E+02  0.00000000000E+00 0.  1.
      -24    2    1    2    0    0  0.00000000000E+00  0.00000000000E+00  0.35189179984E+02  0.75137852989E+02  0.66388391786E+02 0.  0.
       11    1    3    3    0    0 -0.12561947097E+02 -0.55418459300E+01  0.51799061821E+02  0.53587847286E+02  0.00000000000E+00 0. -1.
      -12    1    3    3    0    0  0.12561947097E+02  0.55418459300E+01 -0.16609881837E+02  0.21550005704E+02  0.00000000000E+00 0.  1.
</event>
<event>
 5   0  0.2392100E+01  0.7989415E+02  0.7957747E-01  0.1327850E+00
        1   -1    0    0  501    0  0.00000000000E+00  0.00000000000E+00  0.57161664069E+02  0.57161664069E+02  0.00000000000E+00 0. -1.
       -2   -1    0    0    0  501  0.00000000000E+00  0.00000000000E+00 -0.27916763994E+02  0.27916763994E+02  0.00000000000E+00 0.  1.
      -24    2    1    2    0    0  0.00000000000E+00  0.00000000000E+00  0.29244900076E+02  0.85078428063E+02  0.79894147103E+02 0.  0.
       11    1    3    3    0    0  0.10822964791E+02 -0.41576269721E+01  0.55330571151E+02  0.56532243303E+02  0.00000000000E+00 0. -1.
      -12    1    3    3    0    0 -0.10822964791E+02  0.41576269721E+01 -0.26085671076E+02  0.28546184760E+02  0.00000000000E+00 0.  1.
</event>
<event>
 5   0  0.2392100E+01  0.7999864E+02  0.7957747E-01  0.1327568E+00
        1   -1    0    0  501    0  0.00000000000E+00  0.00000000000E+00  0.28513931505E+03  0.28513931505E+03  0.00000000000E+00 0. -1.
       -2   -1    0    0    0  501  0.00000000000E+00  0.00000000000E+00 -0.56111010704E+01  0.56111010704E+01  0.00000000000E+00 0.  1.
      -24    2    1    2    0    0  0.00000000000E+00  0.00000000000E+00  0.27952821398E+03  0.29075041612E+03  0.79998637886E+02 0.  0.
       11    1    3    3    0    0 -0.27999407417E+02  0.28275426934E+02  0.15451785231E+03  0.15955949758E+03  0.00000000000E+00 0. -1.
      -12    1    3    3    0    0  0.27999407417E+02 -0.28275426934E+02  0.12501036167E+03  0.13119091854E+03  0.00000000000E+00 0.  1.
</event>
<event>
 5   0  0.2392100E+01  0.8020279E+02  0.7957747E-01  0.1327021E+00
        1   -1    0    0  501    0  0.00000000000E+00  0.00000000000E+00  0.86822527652E+02  0.86822527652E+02  0.00000000000E+00 0. -1.
       -2   -1    0    0    0  501  0.00000000000E+00  0.00000000000E+00 -0.18521943505E+02  0.18521943505E+02  0.00000000000E+00 0.  1.
      -24    2    1    2    0    0  0.00000000000E+00  0.00000000000E+00  0.68300584147E+02  0.10534447116E+03  0.80202791776E+02 0.  0.
       11    1    3    3    0    0 -0.26028365994E+02  0.11282221219E+02  0.71378892936E+02  0.76809574330E+02  0.00000000000E+00 0. -1.
      -12    1    3    3    0    0  0.26028365994E+02 -0.11282221219E+02 -0.30783087893E+01  0.28534896827E+02  0.00000000000E+00 0.  1.
</event>
<event>
 5   0  0.2392100E+01  0.8013521E+02  0.7957747E-01  0.1327202E+00
       -4   -1    0    0    0  501  0.00000000000E+00  0.00000000000E+00  0.99853844685E+02  0.99853844685E+02  0.00000000000E+00 0.  1.
        3   -1    0    0  501    0  0.00000000000E+00  0.00000000000E+00 -0.16077627554E+02  0.16077627554E+02  0.00000000000E+00 0. -1.
      -24    2    1    2    0    0  0.00000000000E+00  0.00000000000E+00  0.83776217131E+02  0.11593147224E+03  0.80135208858E+02 0.  0.
       11    1    3    3    0    0  0.32143776676E+02  0.11799695486E+02  0.11785735904E+02  0.36212687879E+02  0.00000000000E+00 0. -1.
      -12    1    3    3    0    0 -0.32143776676E+02 -0.11799695486E+02  0.71990481227E+02  0.79718784360E+02  0.00000000000E+00 0.  1.
</event>
<event>
 5   0  0.2392100E+01  0.6310318E+02  0.7957747E-01  0.1380626E+00
       -2   -1    0    0    0  501  0.00000000000E+00  0.00000000000E+00  0.10394409797E+03  0.10394409797E+03  0.00000000000E+00 0.  1.
        1   -1    0    0  501    0  0.00000000000E+00  0.00000000000E+00 -0.95772905612E+01  0.95772905612E+01  0.00000000000E+00 0. -1.
      -24    2    1    2    0    0  0.00000000000E+00  0.00000000000E+00  0.94366807410E+02  0.11352138853E+03  0.63103179901E+02 0.  0.
       11    1    3    3    0    0 -0.22576982882E+02 -0.73342386359E+01  0.97926595323E+01  0.25678928972E+02  0.00000000000E+00 0. -1.
      -12    1    3    3    0    0  0.22576982882E+02  0.73342386359E+01  0.84574147877E+02  0.87842459560E+02  0.00000000000E+00 0.  1.
</event>
<event>
 5   0  0.2392100E+01  0.7982291E+02  0.7957747E-01  0.1328042E+00
       -2   -1    0    0    0  501  0.00000000000E+00  0.00000000000E+00  0.26302684541E+02  0.26302684541E+02  0.00000000000E+00 0.  1.
        1   -1    0    0  501    0  0.00000000000E+00  0.00000000000E+00 -0.60561279792E+02  0.60561279792E+02  0.00000000000E+00 0. -1.
      -24    2    1    2    0    0  0.00000000000E+00  0.00000000000E+00 -0.34258595251E+02  0.86863964333E+02  0.79822909938E+02 0.  0.
       11    1    3    3    0    0 -0.30854376090E+02  0.17160686617E+02 -0.37384085654E+02  0.51420341785E+02  0.00000000000E+00 0. -1.
      -12    1    3    3    0    0  0.30854376090E+02 -0.17160686617E+02  0.31254904029E+01  0.35443622548E+02  0.00000000000E+00 0.  1.
</event>
<event>
 5   0  0.2392100E+01  0.7513444E+02  0.7957747E-01  0.1341197E+00
        1   -1    0    0  501    0  0.00000000000E+00  0.00000000000E+00  0.19417957460E+02  0.19417957460E+02  0.00000000000E+00 0. -1.
       -2   -1    0    0    0  501  0.00000000000E+00  0.00000000000E+00 -0.72679933184E+02  0.72679933184E+02  0.00000000000E+00 0.  1.
      -24    2    1    2    0    0  0.00000000000E+00  0.00000000000E+00 -0.53261975724E+02  0.92097890644E+02  0.75134435535E+02 0.  0.
       11    1    3    3    0    0 -0.93944589726E+00  0.30716666240E+02 -0.14461696643E+00  0.30731369276E+02  0.00000000000E+00 0. -1.
      -12    1    3    3    0    0  0.93944589726E+00 -0.30716666240E+02 -0.53117358757E+02  0.61366521368E+02  0.00000000000E+00 0.  1.
</event>
<event>
 5   0  0.2392100E+01  0.8076277E+02  0.7957747E-01  0.1325527E+00
       -2   -1    0    0    0  501  0.00000000000E+00  0.00000000000E+00  0.93574888858E+02  0.93574888858E+02  0.00000000000E+00 0.  1.
        1   -1    0    0  501    0  0.00000000000E+00  0.00000000000E+00 -0.17426218232E+02  0.17426218232E+02  0.00000000000E+00 0. -1.
      -24    2    1    2    0    0  0.00000000000E+00  0.00000000000E+00  0.76148670626E+02  0.11100110709E+03  0.80762774452E+02 0.  0.
       11    1    3    3    0    0 -0.19603996189E+01 -0.20209878056E+02 -0.98997175069E+01  0.22589527317E+02  0.00000000000E+00 0. -1.
      -12    1    3    3    0    0  0.19603996189E+01  0.20209878056E+02  0.86048388133E+02  0.88411579773E+02  0.00000000000E+00 0.  1.
</event>
<event>
 5   0  0.2392100E+01  0.8001615E+02  0.7957747E-01  0.1327521E+00
        3   -1    0    0  501    0  0.00000000000E+00  0.00000000000E+00  0.14161850494E+03  0.14161850494E+03  0.00000000000E+00 0. -1.
       -4   -1    0    0    0  501  0.00000000000E+00  0.00000000000E+00 -0.11302520674E+02  0.11302520674E+02  0.00000000000E+00 0.  1.
      -24    2    1    2    0    0  0.00000000000E+00  0.00000000000E+00  0.13031598427E+03  0.15292102561E+03  0.80016150366E+02 0.  0.
       11    1    3    3    0    0 -0.12854098478E+02  0.32584590229E+02  0.10210075986E+03  0.10794233892E+03  0.00000000000E+00 0. -1.
      -12    1    3    3    0    0  0.12854098478E+02 -0.32584590229E+02  0.28215224406E+02  0.44978686690E+02  0.00000000000E+00 0.  1.
</event>
<event>
 5   0  0.2392100E+01  0.8002131E+02  0.7957747E-01  0.1327508E+00
        1   -1    0    0  501    0  0.00000000000E+00  0.00000000000E+00  0.33237850110E+02  0.33237850110E+02  0.00000000000E+00 0. -1.
       -2   -1    0    0    0  501  0.00000000000E+00  0.00000000000E+00 -0.48163536121E+02  0.48163536121E+02  0.00000000000E+00 0.  1.
      -24    2    1    2    0    0  0.00000000000E+00  0.00000000000E+00 -0.14925686011E+02  0.81401386231E+02  0.80021307021E+02 0.  0.
       11    1    3    3    0    0  0.10568384405E+02  0.37179832809E+02  0.30508636978E+01  0.38772909175E+02  0.00000000000E+00 0. -1.
      -12    1    3    3    0    0 -0.10568384405E+02 -0.37179832809E+02 -0.17976549708E+02  0.42628477055E+02  0.00000000000E+00 0.  1.
</event>
<event>
 5   0  0.2392100E+01  0.7993259E+02  0.7957747E-01  0.1327746E+00
       -2   -1    0    0    0  501  0.00000000000E+00  0.00000000000E+00  0.51291323790E+02  0.51291323790E+02  0.00000000000E+00 0.  1.
        1   -1    0    0  501    0  0.00000000000E+00  0.00000000000E+00 -0.31141809154E+02  0.31141809154E+02  0.00000000000E+00 0. -1.
      -24    2    1    2    0    0  0.00000000000E+00  0.00000000000E+00  0.20149514637E+02  0.82433132944E+02  0.79932587015E+02 0.  0.
       11    1    3    3    0    0 -0.19527759841E+02 -0.14680585384E+02 -0.22544643838E+02  0.33243254315E+02  0.00000000000E+00 0. -1.
      -12    1    3    3    0    0  0.19527759841E+02  0.14680585384E+02  0.42694158475E+02  0.49189878629E+02  0.00000000000E+00 0.  1.
</event>
<event>
 5   0  0.2392100E+01  0.9321508E+02  0.7957747E-01  0.1295482E+00
        1   -1    0    0  501    0  0.00000000000E+00  0.00000000000E+00  0.18378337782E+03  0.18378337782E+03  0.00000000000E+00 0. -1.
       -2   -1    0    0    0  501  0.00000000000E+00  0.00000000000E+00 -0.11819691095E+02  0.11819691095E+02  0.00000000000E+00 0.  1.
      -24    2    1    2    0    0  0.00000000000E+00  0.00000000000E+00  0.17196368673E+03  0.19560306892E+03  0.93215079346E+02 0.  0.
       11    1    3    3    0    0  0.22529284558E+02  0.21781376180E+02  0.15837732438E+03  0.16144774352E+03  0.00000000000E+00 0. -1.
      -12    1    3    3    0    0 -0.22529284558E+02 -0.21781376180E+02  0.13586362347E+02  0.34155325395E+02  0.00000000000E+00 0.  1.
</event>
<event>
 5   0  0.2392100E+01  0.8061110E+02  0.7957747E-01  0.1325930E+00
       -4   -1    0    0    0  501  0.00000000000E+00  0.00000000000E+00  0.13152490699E+03  0.13152490699E+03  0.00000000000E+00 0.  1.
        3   -1    0    0  501    0  0.00000000000E+00  0.00000000000E+00 -0.12351557364E+02  0.12351557364E+02  0.00000000000E+00 0. -1.
      -24    2    1    2    0    0  0.00000000000E+00  0.00000000000E+00  0.11917334963E+03  0.14387646436E+03  0.80611101804E+02 0.  0.
       11    1    3    3    0    0  0.32332457372E+02 -0.22998699033E+02  0.46939668167E+02  0.61462674890E+02  0.00000000000E+00 0. -1.
      -12    1    3    3    0    0 -0.32332457372E+02  0.22998699033E+02  0.72233681460E+02  0.82413789466E+02  0.00000000000E+00 0.  1.
</event>
<event>
 5   0  0.2392100E+01  0.8047085E+02  0.7957747E-01  0.1326304E+00
       -2   -1    0    0    0  501  0.00000000000E+00  0.00000000000E+00  0.10475672255E+02  0.10475672255E+02  0.00000000000E+00 0.  1.
        1   -1    0    0  501    0  0.00000000000E+00  0.00000000000E+00 -0.15453800174E+03  0.15453800174E+03  0.00000000000E+00 0. -1.
      -24    2    1    2    0    0  0.00000000000E+00  0.00000000000E+00 -0.14406232948E+03  0.16501367399E+03  0.80470850798E+02 0.  0.
       11    1    3    3    0    0  0.35662561488E+02  0.18171414440E+02 -0.63608490911E+02  0.75153567518E+02  0.00000000000E+00 0. -1.
      -12    1    3    3    0    0 -0.35662561488E+02 -0.18171414440E+02 -0.80453838570E+02  0.89860106473E+02  0.00000000000E+00 0.  1.
</event>
<event>
 5   0  0.2392100E+01  0.7984826E+02  0.7957747E-01  0.1327973E+00
       -2   -1    0    0    0  501  0.00000000000E+00  0.00000000000E+00  0.10948071399E+03  0.10948071399E+03  0.00000000000E+00 0.  1.
        1   -1    0    0  501    0  0.00000000000E+00  0.00000000000E+00 -0.14559058876E+02  0.14559058876E+02  0.00000000000E+00 0. -1.
      -24    2    1    2    0    0  0.00000000000E+00  0.00000000000E+00  0.94921655111E+02  0.12403977286E+03  0.79848260111E+02 0.  0.
       11    1    3    3    0    0 -0.71888620530E+01  0.11355027625E+02 -0.10939559050E+02  0.17328887506E+02  0.00000000000E+00 0. -1.
      -12    1    3    3    0    0  0.71888620530E+01 -0.11355027625E+02  0.10586121416E+03  0.10671088536E+03  0.00000000000E+00 0.  1.
</event>
<event>
 5   0  0.2392100E+01  0.8023614E+02  0.7957747E-01  0.1326931E+00
        1   -1    0    0  501    0  0.00000000000E+00  0.00000000000E+00  0.14459279068E+03  0.14459279068E+03  0.00000000000E+00 0. -1.
       -2   -1    0    0    0  501  0.00000000000E+00  0.00000000000E+00 -0.11130981240E+02  0.11130981240E+02  0.00000000000E+00 0.  1.
      -24    2    1    2    0    0  0.00000000000E+00  0.00000000000E+00  0.13346180944E+03  0.15572377192E+03  0.80236142492E+02 0.  0.
       11    1    3    3    0    0 -0.14128558681E+02 -0.35903584558E+02  0.88060143157E+02  0.96141938650E+02  0.00000000000E+00 0. -1.
      -12    1    3    3    0    0  0.14128558681E+02  0.35903584558E+02  0.45401666280E+02  0.59581833267E+02  0.00000000000E+00 0.  1.
</event>
<event>
 5   0  0.2392100E+01  0.8070871E+02  0.7957747E-01  0.1325671E+00
        1   -1    0    0  501    0  0.00000000000E+00  0.00000000000E+00  0.12343053562E+03  0.12343053562E+03  0.00000000000E+00 0. -1.
       -2   -1    0    0    0  501  0.00000000000E+00  0.00000000000E+00 -0.13193444415E+02  0.13193444415E+02  0.00000000000E+00 0.  1.
      -24    2    1    2    0    0  0.00000000000E+00  0.00000000000E+00  0.11023709120E+03  0.13662398003E+03  0.80708708596E+02 0.  0.
       11    1    3    3    0    0  0.30164571289E+02  0.14327736828E+02  0.16766608489E+02  0.37367158895E+02  0.00000000000E+00 0. -1.
      -12    1    3    3    0    0 -0.30164571289E+02 -0.14327736828E+02  0.93470482711E+02  0.99256821136E+02  0.00000000000E+00 0.  1.
</event>
<event>
 5   0  0.2392100E+01  0.7845197E+02  0.7957747E-01  0.1331780E+00
       -2   -1    0    0    0  501  0.00000000000E+00  0.00000000000E+00  0.13318767373E+02  0.13318767373E+02  0.00000000000E+00 0.  1.
        1   -1    0    0  501    0  0.00000000000E+00  0.00000000000E+00 -0.11552704605E+03  0.11552704605E+03  0.00000000000E+00 0. -1.
      -24    2    1    2    0    0  0.00000000000E+00  0.00000000000E+00 -0.10220827868E+03  0.12884581342E+03  0.78451968788E+02 0.  0.
       11    1    3    3    0    0 -0.26297365317E+02 -0.24351213104E+02 -0.77286398725E+02  0.85192255693E+02  0.00000000000E+00 0. -1.
      -12    1    3    3    0    0  0.26297365317E+02  0.24351213104E+02 -0.24921879953E+02  0.43653557731E+02  0.00000000000E+00 0.  1.
</event>
<event>
 5   0  0.2392100E+01  0.7766797E+02  0.7957747E-01  0.1333957E+00
       -2   -1    0    0    0  501  0.00000000000E+00  0.00000000000E+00  0.39399446269E+02  0.39399446269E+02  0.00000000000E+00 0.  1.
        1   -1    0    0  501    0  0.00000000000E+00  0.00000000000E+00 -0.38276636974E+02  0.38276636974E+02  0.00000000000E+00 0. -1.
      -24    2    1    2    0    0  0.00000000000E+00  0.00000000000E+00  0.11228092950E+01  0.77676083243E+02  0.77667967704E+02 0.  0.
       11    1    3    3    0    0  0.15431891652E+02 -0.18554225470E+01 -0.35030126857E+02  0.38323565341E+02  0.00000000000E+00 0. -1.
      -12    1    3    3    0    0 -0.15431891652E+02  0.18554225470E+01  0.36152936152E+02  0.39352517902E+02  0.00000000000E+00 0.  1.
</event>
<event>
 5   0  0.2392100E+01  0.8642505E+02  0.7957747E-01  0.1311157E+00
       -2   -1    0    0    0  501  0.00000000000E+00  0.00000000000E+00  0.49417019883E+01  0.49417019883E+01  0.00000000000E+00 0.  1.
        1   -1    0    0  501    0  0.00000000000E+00  0.00000000000E+00 -0.37787027746E+03  0.37787027746E+03  0.00000000000E+00 0. -1.
      -24    2    1    2    0    0  0.00000000000E+00  0.00000000000E+00 -0.37292857547E+03  0.38281197944E+03  0.86425049642E+02 0.  0.
       11    1    3    3    0    0  0.60003617491E+01  0.42695845505E+02 -0.17363983623E+03  0.17891263871E+03  0.00000000000E+00 0. -1.
      -12    1    3    3    0    0 -0.60003617491E+01 -0.42695845505E+02 -0.19928873923E+03  0.20389934073E+03  0.00000000000E+00 0.  1.
</event>
<event>
 5   0  0.2392100E+01  0.8061286E+02  0.7957747E-01  0.1325926E+00
       -2   -1    0    0    0  501  0.00000000000E+00  0.00000000000E+00  0.64675762384E+02  0.64675762384E+02  0.00000000000E+00 0.  1.
        1   -1    0    0  501    0  0.00000000000E+00  0.00000000000E+00 -0.25119275883E+02  0.25119275883E+02  0.00000000000E+00 0. -1.
      -24    2    1    2    0    0  0.00000000000E+00  0.00000000000E+00  0.39556486501E+02  0.89795038267E+02  0.80612860470E+02 0.  0.
       11    1    3    3    0    0 -0.27068753789E+02  0.13545255378E+02 -0.98695571248E+01  0.31837077956E+02  0.00000000000E+00 0. -1.
      -12    1    3    3    0    0  0.27068753789E+02 -0.13545255378E+02  0.49426043626E+02  0.57957960311E+02  0.00000000000E+00 0.  1.
</event>
<event>
 5   0  0.2392100E+01  0.7806220E+02  0.7957747E-01  0.1332859E+00
        1   -1    0    0  501    0  0.00000000000E+00  0.00000000000E+00  0.30284007665E+03  0.30284007665E+03  0.00000000000E+00 0. -1.
       -2   -1    0    0    0  501  0.00000000000E+00  0.00000000000E+00 -0.50304659289E+01  0.50304659289E+01  0.00000000000E+00 0.  1.
      -24    2    1    2    0    0  0.00000000000E+00  0.00000000000E+00  0.29780961072E+03  0.30787054258E+03  0.78062197958E+02 0.  0.
       11    1    3    3    0    0  0.24936465057E+02  0.26461941058E+02  0.20487018243E+03  0.20807175028E+03  0.00000000000E+00 0. -1.
      -12    1    3    3    0    0 -0.24936465057E+02 -0.26461941058E+02  0.92939428293E+02  0.99798792305E+02  0.00000000000E+00 0.  1.
</event>
<event>
 5   0  0.2392100E+01  0.8031134E+02  0.7957747E-01  0.1326730E+00
        1   -1    0    0  501    0  0.00000000000E+00  0.00000000000E+00  0.45781920230E+02  0.45781920230E+02  0.00000000000E+00 0. -1.
       -2   -1    0    0    0  501  0.00000000000E+00  0.00000000000E+00 -0.35220840870E+02  0.35220840870E+02  0.00000000000E+00 0.  1.
      -24    2    1    2    0    0  0.00000000000E+00  0.00000000000E+00  0.10561079360E+02  0.81002761100E+02  0.80311337360E+02 0.  0.
       11    1    3    3    0    0  0.39224897926E+02  0.73601479221E+01  0.80234482356E+00  0.39917516856E+02  0.00000000000E+00 0. -1.
      -12    1    3    3    0    0 -0.39224897926E+02 -0.73601479221E+01  0.97587345363E+01  0.41085244243E+02  0.00000000000E+00 0.  1.
</event>
<event>
 5   0  0.2392100E+01  0.8065962E+02  0.7957747E-01  0.1325801E+00
        1   -1    0    0  501    0  0.00000000000E+00  0.00000000000E+00  0.21106342158E+02  0.21106342158E+02  0.00000000000E+00 0. -1.
       -2   -1    0    0    0  501  0.00000000000E+00  0.00000000000E+00 -0.77061831753E+02  0.77061831753E+02  0.00000000000E+00 0.  1.
      -24    2    1    2    0    0  0.00000000000E+00  0.00000000000E+00 -0.55955489596E+02  0.98168173911E+02  0.80659615379E+02 0.  0.
       11    1    3    3    0    0 -0.35309897679E+02 -0.47792274104E+01 -0.49863334974E+01  0.35979069060E+02  0.00000000000E+00 0. -1.
      -12    1    3    3    0    0  0.35309897679E+02  0.47792274104E+01 -0.50969156099E+02  0.62189104851E+02  0.00000000000E+00 0.  1.
</event>
<event>
 5   0  0.2392100E+01  0.8096807E+02  0.7957747E-01  0.1324983E+00
        3   -1    0    0  501    0  0.00000000000E+00  0.00000000000E+00  0.95065921642E+02  0.95065921642E+02  0.00000000000E+00 0. -1.
       -4   -1    0    0    0  501  0.00000000000E+00  0.00000000000E+00 -0.17240215995E+02  0.17240215995E+02  0.00000000000E+00 0.  1.
      -24    2    1    2    0    0  0.00000000000E+00  0.00000000000E+00  0.77825705648E+02  0.11230613764E+03  0.80968068344E+02 0.  0.
       11    1    3    3    0    0  0.15511825455E+02 -0.14583581048E+02  0.86673444465E+02  0.89250117874E+02  0.00000000000E+00 0. -1.
      -12    1    3    3    0    0 -0.15511825455E+02  0.14583581048E+02 -0.88477388176E+01  0.23056019762E+02  0.00000000000E+00 0.  1.
</event>
<event>
 5   0  0.2392100E+01  0.8169144E+02  0.7957747E-01  0.1323081E+00
       -4   -1    0    0    0  501  0.00000000000E+00  0.00000000000E+00  0.13143999454E+03  0.13143999454E+03  0.00000000000E+00 0.  1.
        3   -1    0    0  501    0  0.00000000000E+00  0.00000000000E+00 -0.12693036902E+02  0.12693036902E+02  0.00000000000E+00 0. -1.
      -24    2    1    2    0    0  0.00000000000E+00  0.00000000000E+00  0.11874695763E+03  0.14413303144E+03  0.81691436543E+02 0.  0.
       11    1    3    3    0    0  0.32428988923E+02  0.19524813025E+02  0.32296741941E+02  0.49758790040E+02  0.00000000000E+00 0. -1.
      -12    1    3    3    0    0 -0.32428988923E+02 -0.19524813025E+02  0.86450215694E+02  0.94374241400E+02  0.00000000000E+00 0.  1.
</event>
<event>
 5   0  0.2392100E+01  0.8029795E+02  0.7957747E-01  0.1326766E+00
        1   -1    0    0  501    0  0.00000000000E+00  0.00000000000E+00  0.39037921899E+03  0.39037921899E+03  0.00000000000E+00 0. -1.
       -2   -1    0    0    0  501  0.00000000000E+00  0.00000000000E+00 -0.41291653396E+01  0.41291653396E+01  0.00000000000E+00 0.  1.
      -24    2    1    2    0    0  0.00000000000E+00  0.00000000000E+00  0.38625005365E+03  0.39450838433E+03  0.80297953657E+02 0.  0.
       11    1    3    3    0    0 -0.29411695592E+02  0.87303874167E+01  0.65889873087E+02  0.72682479852E+02  0.00000000000E+00 0. -1.
      -12    1    3    3    0    0  0.29411695592E+02 -0.87303874167E+01  0.32036018056E+03  0.32182590448E+03  0.00000000000E+00 0.  1.
</event>
<event>
 5   0  0.2392100E+01  0.8034883E+02  0.7957747E-01  0.1326630E+00
       -4   -1    0    0    0  501  0.00000000000E+00  0.00000000000E+00  0.25685706793E+02  0.25685706793E+02  0.00000000000E+00 0.  1.
        3   -1    0    0  501    0  0.00000000000E+00  0.00000000000E+00 -0.62835863313E+02  0.62835863313E+02  0.00000000000E+00 0. -1.
      -24    2    1    2    0    0  0.00000000000E+00  0.00000000000E+00 -0.37150156520E+02  0.88521570106E+02  0.80348828521E+02 0.  0.
       11    1    3    3    0    0  0.16442672890E+02 -0.33886362763E+02 -0.33972969470E+02  0.50722871840E+02  0.00000000000E+00 0. -1.
      -12    1    3    3    0    0 -0.16442672890E+02  0.33886362763E+02 -0.31771870496E+01  0.37798698266E+02  0.00000000000E+00 0.  1.
</event>
<event>
 5   0  0.2392100E+01  0.8101194E+02  0.7957747E-01  0.1324867E+00
        1   -1    0    0  501    0  0.00000000000E+00  0.00000000000E+00  0.23334072157E+03  0.23334072157E+03  0.00000000000E+00 0. -1.
       -2   -1    0    0    0  501  0.00000000000E+00  0.00000000000E+00 -0.70314922154E+01  0.70314922154E+01  0.00000000000E+00 0.  1.
      -24    2    1    2    0    0  0.00000000000E+00  0.00000000000E+00  0.22630922935E+03  0.24037221378E+03  0.81011936583E+02 0.  0.
       11    1    3    3    0    0 -0.35685153951E+02 -0.41503322088E+01  0.16867054948E+03  0.17245408007E+03  0.00000000000E+00 0. -1.
      -12    1    3    3    0    0  0.35685153951E+02  0.41503322088E+01  0.57638679867E+02  0.67918133711E+02  0.00000000000E+00 0.  1.
</event>
<event>
 5   0  0.2392100E+01  0.7811759E+02  0.7957747E-01  0.1332705E+00
       -4   -1    0    0    0  501  0.00000000000E+00  0.00000000000E+00  0.89623417168E+01  0.89623417168E+01  0.00000000000E+00 0.  1.
        3   -1    0    0  501    0  0.00000000000E+00  0.00000000000E+00 -0.17022218418E+03  0.17022218418E+03  0.00000000000E+00 0. -1.
      -24    2    1    2    0    0  0.00000000000E+00  0.00000000000E+00 -0.16125984246E+03  0.17918452590E+03  0.78117587838E+02 0.  0.
       11    1    3    3    0    0 -0.75105431517E+01  0.26556861200E+02 -0.17232151163E+02  0.32536474439E+02  0.00000000000E+00 0. -1.
      -12    1    3    3    0    0  0.75105431517E+01 -0.26556861200E+02 -0.14402769130E+03  0.14664805146E+03  0.00000000000E+00 0.  1.
</event>
<event>
 5   0  0.2392100E+01  0.7448796E+02  0.7957747E-01  0.1343097E+00
       -2   -1    0    0    0  501  0.00000000000E+00  0.00000000000E+00  0.13764101735E+03  0.13764101735E+03  0.00000000000E+00 0.  1.
        1   -1    0    0  501    0  0.00000000000E+00  0.00000000000E+00 -0.10077767208E+02  0.10077767208E+02  0.00000000000E+00 0. -1.
      -24    2    1    2    0    0  0.00000000000E+00  0.00000000000E+00  0.12756325014E+03  0.14771878455E+03  0.74487962278E+02 0.  0.
       11    1    3    3    0    0  0.11850921786E+02 -0.16230645366E+02  0.15976467670E+01  0.20160125777E+02  0.00000000000E+00 0. -1.
      -12    1    3    3    0    0 -0.11850921786E+02  0.16230645366E+02  0.12596560337E+03  0.12755865878E+03  0.00000000000E+00 0.  1.
</event>
<event>
 5   0  0.2392100E+01  0.7972023E+02  0.7957747E-01  0.1328319E+00
       -2   -1    0    0    0  501  0.00000000000E+00  0.00000000000E+00  0.11811656092E+02  0.11811656092E+02  0.00000000000E+00 0.  1.
        1   -1    0    0  501    0  0.00000000000E+00  0.00000000000E+00 -0.13451363553E+03  0.13451363553E+03  0.00000000000E+00 0. -1.
      -24    2    1    2    0    0  0.00000000000E+00  0.00000000000E+00 -0.12270197944E+03  0.14632529162E+03  0.79720230872E+02 0.  0.
       11    1    3    3    0    0 -0.26478191779E+02 -0.16349082489E+02 -0.10707047451E+03  0.11150100291E+03  0.00000000000E+00 0. -1.
      -12    1    3    3    0    0  0.26478191779E+02  0.16349082489E+02 -0.15631504933E+02  0.34824288716E+02  0.00000000000E+00 0.  1.
</event>
<event>
 5   0  0.2392100E+01  0.7913559E+02  0.7957747E-01  0.1329905E+00
       -2   -1    0    0    0  501  0.00000000000E+00  0.00000000000E+00  0.12539371219E+02  0.12539371219E+02  0.00000000000E+00 0.  1.
        1   -1    0    0  501    0  0.00000000000E+00  0.00000000000E+00 -0.12485558285E+03  0.12485558285E+03  0.00000000000E+00 0. -1.
      -24    2    1    2    0    0  0.00000000000E+00  0.00000000000E+00 -0.11231621163E+03  0.13739495407E+03  0.79135592553E+02 0.  0.
       11    1    3    3    0    0  0.31764044488E+02  0.23574414163E+02 -0.54508283289E+02  0.67348797112E+02  0.00000000000E+00 0. -1.
      -12    1    3    3    0    0 -0.31764044488E+02 -0.23574414163E+02 -0.57807928343E+02  0.70046156959E+02  0.00000000000E+00 0.  1.
</event>
<event>
 5   0  0.2392100E+01  0.8031690E+02  0.7957747E-01  0.1326715E+00
       -4   -1    0    0    0  501  0.00000000000E+00  0.00000000000E+00  0.98825853060E+02  0.98825853060E+02  0.00000000000E+00 0.  1.
        3   -1    0    0  501    0  0.00000000000E+00  0.00000000000E+00 -0.16318615880E+02  0.16318615880E+02  0.00000000000E+00 0. -1.
      -24    2    1    2    0    0  0.00000000000E+00  0.00000000000E+00  0.82507237180E+02  0.11514446894E+03  0.80316900716E+02 0.  0.
       11    1    3    3    0    0 -0.32525422039E+02  0.74182112644E+01  0.92041783965E+01  0.34607077847E+02  0.00000000000E+00 0. -1.
      -12    1    3    3    0    0  0.32525422039E+02 -0.74182112644E+01  0.73303058783E+02  0.80537391093E+02  0.00000000000E+00 0.  1.
</event>
<event>
 5   0  0.2392100E+01  0.8024757E+02  0.7957747E-01  0.1326901E+00
        1   -1    0    0  501    0  0.00000000000E+00  0.00000000000E+00  0.16134341154E+02  0.16134341154E+02  0.00000000000E+00 0. -1.
       -2   -1    0    0    0  501  0.00000000000E+00  0.00000000000E+00 -0.99782075315E+02  0.99782075315E+02  0.00000000000E+00 0.  1.
      -24    2    1    2    0    0  0.00000000000E+00  0.00000000000E+00 -0.83647734161E+02  0.11591641647E+03  0.80247568042E+02 0.  0.
       11    1    3    3    0    0  0.94809053351E+01  0.14372050262E+02  0.10527004244E+02  0.20180713889E+02  0.00000000000E+00 0. -1.
      -12    1    3    3    0    0 -0.94809053351E+01 -0.14372050262E+02 -0.94174738405E+02  0.95735702580E+02  0.00000000000E+00 0.  1.
</event>
<event>
 5   0  0.2392100E+01  0.8022862E+02  0.7957747E-01  0.1326951E+00
        1   -1    0    0  501    0  0.00000000000E+00  0.00000000000E+00  0.13529584011E+02  0.13529584011E+02  0.00000000000E+00 0. -1.
       -2   -1    0    0    0  501  0.00000000000E+00  0.00000000000E+00 -0.11893622852E+03  0.11893622852E+03  0.00000000000E+00 0.  1.
      -24    2    1    2    0    0  0.00000000000E+00  0.00000000000E+00 -0.10540664451E+03  0.13246581253E+03  0.80228615737E+02 0.  0.
       11    1    3    3    0    0 -0.31215680454E+01 -0.11563224857E+02  0.10508432108E+02  0.15933596628E+02  0.00000000000E+00 0. -1.
      -12    1    3    3    0    0  0.31215680454E+01  0.11563224857E+02 -0.11591507662E+03  0.11653221590E+03  0.00000000000E+00 0.  1.
</event>
<event>
 5   0  0.2392100E+01  0.8069568E+02  0.7957747E-01  0.1325705E+00
        3   -1    0    0  501    0  0.00000000000E+00  0.00000000000E+00  0.12791128982E+02  0.12791128982E+02  0.00000000000E+00 0. -1.
       -4   -1    0    0    0  501  0.00000000000E+00  0.00000000000E+00 -0.12727167301E+03  0.12727167301E+03  0.00000000000E+00 0.  1.
      -24    2    1    2    0    0  0.00000000000E+00  0.00000000000E+00 -0.11448054403E+03  0.14006280200E+03  0.80695684774E+02 0.  0.
       11    1    3    3    0    0 -0.35500583964E+02 -0.14201880498E+02 -0.79600632957E+02  0.88307675989E+02  0.00000000000E+00 0. -1.
      -12    1    3    3    0    0  0.35500583964E+02  0.14201880498E+02 -0.34879911075E+02  0.51755126008E+02  0.00000000000E+00 0.  1.
</event>
<event>
 5   0  0.2392100E+01  0.8044417E+02  0.7957747E-01  0.1326375E+00
       -4   -1    0    0    0  501  0.00000000000E+00  0.00000000000E+00  0.36417087392E+02  0.36417087392E+02  0.00000000000E+00 0.  1.
        3   -1    0    0  501    0  0.00000000000E+00  0.00000000000E+00 -0.44424640408E+02  0.44424640408E+02  0.00000000000E+00 0. -1.
      -24    2    1    2    0    0  0.00000000000E+00  0.00000000000E+00 -0.80075530161E+01  0.80841727799E+02  0.80444167273E+02 0.  0.
       11    1    3    3    0    0 -0.14813675473E+02  0.14574450421E+02 -0.38611688116E+02  0.43848854549E+02  0.00000000000E+00 0. -1.
      -12    1    3    3    0    0  0.14813675473E+02 -0.14574450421E+02  0.30604135100E+02  0.36992873250E+02  0.00000000000E+00 0.  1.
</event>
<event>
 5   0  0.2392100E+01  0.8063785E+02  0.7957747E-01  0.1325859E+00
        1   -1    0    0  501    0  0.00000000000E+00  0.00000000000E+00  0.10780118556E+03  0.10780118556E+03  0.00000000000E+00 0. -1.
       -2   -1    0    0    0  501  0.00000000000E+00  0.00000000000E+00 -0.15079756130E+02  0.15079756130E+02  0.00000000000E+00 0.  1.
      -24    2    1    2    0    0  0.00000000000E+00  0.00000000000E+00  0.92721429426E+02  0.12288094169E+03  0.80637846913E+02 0.  0.
       11    1    3    3    0    0  0.30491775317E+02 -0.26123833174E+02  0.51941580259E+02  0.65651586283E+02  0.00000000000E+00 0. -1.
      -12    1    3    3    0    0 -0.30491775317E+02  0.26123833174E+02  0.40779849168E+02  0.57229355403E+02  0.00000000000E+00 0.  1.
</event>
<event>
 5   0  0.2392100E+01  0.8133208E+02  0.7957747E-01  0.1324023E+00
       -2   -1    0    0    0  501  0.00000000000E+00  0.00000000000E+00  0.16048636448E+02  0.16048636448E+02  0.00000000000E+00 0.  1.
        1   -1    0    0  501    0  0.00000000000E+00  0.00000000000E+00 -0.10304468752E+03  0.10304468752E+03  0.00000000000E+00 0. -1.
      -24    2    1    2    0    0  0.00000000000E+00  0.00000000000E+00 -0.86996051071E+02  0.11909332397E+03  0.81332077999E+02 0.  0.
       11    1    3    3    0    0  0.12478673501E+02 -0.24844008416E+02 -0.86955093851E+02  0.91291458490E+02  0.00000000000E+00 0. -1.
      -12    1    3    3    0    0 -0.12478673501E+02  0.24844008416E+02 -0.40957219245E-01  0.27801865477E+02  0.00000000000E+00 0.  1.
</event>
<event>
 5   0  0.2392100E+01  0.7915641E+02  0.7957747E-01  0.1329848E+00
       -4   -1    0    0    0  501  0.00000000000E+00  0.00000000000E+00  0.15950142131E+02  0.15950142131E+02  0.00000000000E+00 0.  1.
        3   -1    0    0  501    0  0.00000000000E+00  0.00000000000E+00 -0.98208160576E+02  0.98208160576E+02  0.00000000000E+00 0. -1.
      -24    2    1    2    0    0  0.00000000000E+00  0.00000000000E+00 -0.82258018446E+02  0.11415830271E+03  0.79156405163E+02 0.  0.
       11    1    3    3    0    0  0.33558836896E+02  0.14106918157E+02 -0.63528606004E+02  0.73219426756E+02  0.00000000000E+00 0. -1.
      -12    1    3    3    0    0 -0.33558836896E+02 -0.14106918157E+02 -0.18729412442E+02  0.40938875951E+02  0.00000000000E+00 0.  1.
</event>
<event>
 5   0  0.2392100E+01  0.8181403E+02  0.7957747E-01  0.1322760E+00
        1   -1    0    0  501    0  0.00000000000E+00  0.00000000000E+00  0.33699759635E+02  0.33699759635E+02  0.00000000000E+00 0. -1.
       -2   -1    0    0    0  501  0.00000000000E+00  0.00000000000E+00 -0.49655660778E+02  0.49655660778E+02  0.00000000000E+00 0.  1.
      -24    2    1    2    0    0  0.00000000000E+00  0.00000000000E+00 -0.15955901143E+02  0.83355420413E+02  0.81814028938E+02 0.  0.
       11    1    3    3    0    0  0.19796320068E+02  0.31713604909E+02  0.89402215179E+01  0.38439232372E+02  0.00000000000E+00 0. -1.
      -12    1    3    3    0    0 -0.19796320068E+02 -0.31713604909E+02 -0.24896122661E+02  0.44916188041E+02  0.00000000000E+00 0.  1.
</event>
<event>
 5   0  0.2392100E+01  0.7703044E+02  0.7957747E-01  0.1335749E+00
        1   -1    0    0  501    0  0.00000000000E+00  0.00000000000E+00  0.55626908583E+02  0.55626908583E+02  0.00000000000E+00 0. -1.
       -2   -1    0    0    0  501  0.00000000000E+00  0.00000000000E+00 -0.26667348079E+02  0.26667348079E+02  0.00000000000E+00 0.  1.
      -24    2    1    2    0    0  0.00000000000E+00  0.00000000000E+00  0.28959560504E+02  0.82294256663E+02  0.77030439016E+02 0.  0.
       11    1    3    3    0    0  0.19623570685E+02  0.32548153245E+02  0.21147703381E+02  0.43493587624E+02  0.00000000000E+00 0. -1.
      -12    1    3    3    0    0 -0.19623570685E+02 -0.32548153245E+02  0.78118571238E+01  0.38800669039E+02  0.00000000000E+00 0.  1.
</event>
<event>
 5   0  0.2392100E+01  0.8188641E+02  0.7957747E-01  0.1322572E+00
       -2   -1    0    0    0  501  0.00000000000E+00  0.00000000000E+00  0.12932354471E+03  0.12932354471E+03  0.00000000000E+00 0.  1.
        1   -1    0    0  501    0  0.00000000000E+00  0.00000000000E+00 -0.12962420713E+02  0.12962420713E+02  0.00000000000E+00 0. -1.
      -24    2    1    2    0    0  0.00000000000E+00  0.00000000000E+00  0.11636112400E+03  0.14228596543E+03  0.81886413883E+02 0.  0.
       11    1    3    3    0    0  0.36751587886E+02  0.13513270702E+02  0.37397619195E+02  0.54146741533E+02  0.00000000000E+00 0. -1.
      -12    1    3    3    0    0 -0.36751587886E+02 -0.13513270702E+02  0.78963504805E+02  0.88139223892E+02  0.00000000000E+00 0.  1.
</event>
<event>
 5   0  0.2392100E+01  0.7012746E+02  0.7957747E-01  0.1356507E+00
        1   -1    0    0  501    0  0.00000000000E+00  0.00000000000E+00  0.10284421907E+02  0.10284421907E+02  0.00000000000E+00 0. -1.
       -2   -1    0    0    0  501  0.00000000000E+00  0.00000000000E+00 -0.11954636124E+03  0.11954636124E+03  0.00000000000E+00 0.  1.
      -24    2    1    2    0    0  0.00000000000E+00  0.00000000000E+00 -0.10926193933E+03  0.12983078314E+03  0.70127461566E+02 0.  0.
       11    1    3    3    0    0 -0.18232779193E+02  0.66819156617E+01 -0.57957016202E+00  0.19427252394E+02  0.00000000000E+00 0. -1.
      -12    1    3    3    0    0  0.18232779193E+02 -0.66819156617E+01 -0.10868236917E+03  0.11040353075E+03  0.00000000000E+00 0.  1.
</event>
<event>
 5   0  0.2392100E+01  0.8088268E+02  0.7957747E-01  0.1325209E+00
        3   -1    0    0  501    0  0.00000000000E+00  0.00000000000E+00  0.21806272312E+02  0.21806272312E+02  0.00000000000E+00 0. -1.
       -4   -1    0    0    0  501  0.00000000000E+00  0.00000000000E+00 -0.75001450225E+02  0.75001450225E+02  0.00000000000E+00 0.  1.
      -24    2    1    2    0    0  0.00000000000E+00  0.00000000000E+00 -0.53195177913E+02  0.96807722537E+02  0.80882681642E+02 0.  0.
       11    1    3    3    0    0  0.14123721321E+02 -0.36022390783E+02 -0.12516441451E+02  0.40666367532E+02  0.00000000000E+00 0. -1.
      -12    1    3    3    0    0 -0.14123721321E+02  0.36022390783E+02 -0.40678736462E+02  0.56141355005E+02  0.00000000000E+00 0.  1.
</event>
<event>
 5   0  0.2392100E+01  0.7948269E+02  0.7957747E-01  0.1328961E+00
        1   -1    0    0  501    0  0.00000000000E+00  0.00000000000E+00  0.25554395032E+03  0.25554395032E+03  0.00000000000E+00 0. -1.
       -2   -1    0    0    0  501  0.00000000000E+00  0.00000000000E+00 -0.61804422513E+01  0.61804422513E+01  0.00000000000E+00 0.  1.
      -24    2    1    2    0    0  0.00000000000E+00  0.00000000000E+00  0.24936350807E+03  0.26172439257E+03  0.79482693151E+02 0.  0.
       11    1    3    3    0    0 -0.20663962547E+02  0.10720627850E+02  0.18621213472E+02  0.29810749752E+02  0.00000000000E+00 0. -1.
      -12    1    3    3    0    0  0.20663962547E+02 -0.10720627850E+02  0.23074229460E+03  0.23191364282E+03  0.00000000000E+00 0.  1.
</event>
<event>
 5   0  0.2392100E+01  0.7994890E+02  0.7957747E-01  0.1327702E+00
        3   -1    0    0  501    0  0.00000000000E+00  0.00000000000E+00  0.10520990982E+03  0.10520990982E+03  0.00000000000E+00 0. -1.
       -4   -1    0    0    0  501  0.00000000000E+00  0.00000000000E+00 -0.15188270293E+02  0.15188270293E+02  0.00000000000E+00 0.  1.
      -24    2    1    2    0    0  0.00000000000E+00  0.00000000000E+00  0.90021639527E+02  0.12039818011E+03  0.79948897374E+02 0.  0.
       11    1    3    3    0    0 -0.34298919016E+02  0.56851781008E+01  0.74720960726E+02  0.82413342776E+02  0.00000000000E+00 0. -1.
      -12    1    3    3    0    0  0.34298919016E+02 -0.56851781008E+01  0.15300678801E+02  0.37984837337E+02  0.00000000000E+00 0.  1.
</event>
<event>
 5   0  0.2392100E+01  0.8231606E+02  0.7957747E-01  0.1321456E+00
       -2   -1    0    0    0  501  0.00000000000E+00  0.00000000000E+00  0.50044698561E+01  0.50044698561E+01  0.00000000000E+00 0.  1.
        1   -1    0    0  501    0  0.00000000000E+00  0.00000000000E+00 -0.33849410989E+03  0.33849410989E+03  0.00000000000E+00 0. -1.
      -24    2    1    2    0    0  0.00000000000E+00  0.00000000000E+00 -0.33348964003E+03  0.34349857974E+03  0.82316063303E+02 0.  0.
       11    1    3    3    0    0  0.38036476723E+02  0.11809087257E+02 -0.21006198328E+03  0.21380426779E+03  0.00000000000E+00 0. -1.
      -12    1    3    3    0    0 -0.38036476723E+02 -0.11809087257E+02 -0.12342765675E+03  0.12969431196E+03  0.00000000000E+00 0.  1.
</event>
<event>
 5   0  0.2392100E+01  0.8014382E+02  0.7957747E-01  0.1327179E+00
        1   -1    0    0  501    0  0.00000000000E+00  0.00000000000E+00  0.25153775770E+01  0.25153775770E+01  0.00000000000E+00 0. -1.
       -2   -1    0    0    0  501  0.00000000000E+00  0.00000000000E+00 -0.63837649275E+03  0.63837649275E+03  0.00000000000E+00 0.  1.
      -24    2    1    2    0    0  0.00000000000E+00  0.00000000000E+00 -0.63586111517E+03  0.64089187033E+03  0.80143818615E+02 0.  0.
       11    1    3    3    0    0 -0.87146138790E+01  0.24762829199E+02 -0.75822981600E+02  0.80238810708E+02  0.00000000000E+00 0. -1.
      -12    1    3    3    0    0  0.87146138790E+01 -0.24762829199E+02 -0.56003813357E+03  0.56065305962E+03  0.00000000000E+00 0.  1.
</event>
<event>
 5   0  0.2392100E+01  0.7868482E+02  0.7957747E-01  0.1331139E+00
       -2   -1    0    0    0  501  0.00000000000E+00  0.00000000000E+00  0.84113382634E+01  0.84113382634E+01  0.00000000000E+00 0.  1.
        1   -1    0    0  501    0  0.00000000000E+00  0.00000000000E+00 -0.18401650239E+03  0.18401650239E+03  0.00000000000E+00 0. -1.
      -24    2    1    2    0    0  0.00000000000E+00  0.00000000000E+00 -0.17560516412E+03  0.19242784065E+03  0.78684815502E+02 0.  0.
       11    1    3    3    0    0 -0.10975401103E+02 -0.37763176938E+02 -0.85005565128E+02  0.93661427837E+02  0.00000000000E+00 0. -1.
      -12    1    3    3    0    0  0.10975401103E+02  0.37763176938E+02 -0.90599598997E+02  0.98766412814E+02  0.00000000000E+00 0.  1.
</event>
<event>
 5   0  0.2392100E+01  0.8834235E+02  0.7957747E-01  0.1306571E+00
        1   -1    0    0  501    0  0.00000000000E+00  0.00000000000E+00  0.20071004240E+03  0.20071004240E+03  0.00000000000E+00 0. -1.
       -2   -1    0    0    0  501  0.00000000000E+00  0.00000000000E+00 -0.97209527366E+01  0.97209527366E+01  0.00000000000E+00 0.  1.
      -24    2    1    2    0    0  0.00000000000E+00  0.00000000000E+00  0.19098908967E+03  0.21043099514E+03  0.88342353058E+02 0.  0.
       11    1    3    3    0    0 -0.38483958174E+02 -0.21670122101E+02  0.97151028583E+02  0.10671893732E+03  0.00000000000E+00 0. -1.
      -12    1    3    3    0    0  0.38483958174E+02  0.21670122101E+02  0.93838061083E+02  0.10371205782E+03  0.00000000000E+00 0.  1.
</event>
<event>
 5   0  0.2392100E+01  0.8034984E+02  0.7957747E-01  0.1326627E+00
        1   -1    0    0  501    0  0.00000000000E+00  0.00000000000E+00  0.16117421255E+03  0.16117421255E+03  0.00000000000E+00 0. -1.
       -2   -1    0    0    0  501  0.00000000000E+00  0.00000000000E+00 -0.10014159188E+02  0.10014159188E+02  0.00000000000E+00 0.  1.
      -24    2    1    2    0    0  0.00000000000E+00  0.00000000000E+00  0.15116005336E+03  0.17118837174E+03  0.80349840610E+02 0.  0.
       11    1    3    3    0    0 -0.22545481022E+02 -0.33061244040E+02  0.67993502168E+02  0.78895252766E+02  0.00000000000E+00 0. -1.
      -12    1    3    3    0    0  0.22545481022E+02  0.33061244040E+02  0.83166551193E+02  0.92293118971E+02  0.00000000000E+00 0.  1.
</event>
<event>
 5   0  0.2392100E+01  0.7772201E+02  0.7957747E-01  0.1333806E+00
        3   -1    0    0  501    0  0.00000000000E+00  0.00000000000E+00  0.20278083772E+03  0.20278083772E+03  0.00000000000E+00 0. -1.
       -4   -1    0    0    0  501  0.00000000000E+00  0.00000000000E+00 -0.74473397527E+01  0.74473397527E+01  0.00000000000E+00 0.  1.
      -24    2    1    2    0    0  0.00000000000E+00  0.00000000000E+00  0.19533349797E+03  0.21022817748E+03  0.77722012168E+02 0.  0.
       11    1    3    3    0    0 -0.87394244451E+01  0.36569284658E+02  0.12423621388E+03  0.12980110538E+03  0.00000000000E+00 0. -1.
      -12    1    3    3    0    0  0.87394244451E+01 -0.36569284658E+02  0.71097284092E+02  0.80427072092E+02  0.00000000000E+00 0.  1.
</event>
<event>
 5   0  0.2392100E+01  0.8022680E+02  0.7957747E-01  0.1326956E+00
        3   -1    0    0  501    0  0.00000000000E+00  0.00000000000E+00  0.42728011072E+02  0.42728011072E+02  0.00000000000E+00 0. -1.
       -4   -1    0    0    0  501  0.00000000000E+00  0.00000000000E+00 -0.37658778074E+02  0.37658778074E+02  0.00000000000E+00 0.  1.
      -24    2    1    2    0    0  0.00000000000E+00  0.00000000000E+00  0.50692329972E+01  0.80386789146E+02  0.80226795686E+02 0.  0.
       11    1    3    3    0    0 -0.19642836690E+02  0.34222856446E+02  0.97628610312E+01  0.40649211456E+02  0.00000000000E+00 0. -1.
      -12    1    3    3    0    0  0.19642836690E+02 -0.34222856446E+02 -0.46936280340E+01  0.39737577690E+02  0.00000000000E+00 0.  1.
</event>
<event>
 5   0  0.2392100E+01  0.7090349E+02  0.7957747E-01  0.1354040E+00
        1   -1    0    0  501    0  0.00000000000E+00  0.00000000000E+00  0.58610544159E+02  0.58610544159E+02  0.00000000000E+00 0. -1.
       -2   -1    0    0    0  501  0.00000000000E+00  0.00000000000E+00 -0.21443688336E+02  0.21443688336E+02  0.00000000000E+00 0.  1.
      -24    2    1    2    0    0  0.00000000000E+00  0.00000000000E+00  0.37166855823E+02  0.80054232495E+02  0.70903490524E+02 0.  0.
       11    1    3    3    0    0  0.21487423701E+02  0.27221686855E+02  0.26887704130E+02  0.43882550586E+02  0.00000000000E+00 0. -1.
      -12    1    3    3    0    0 -0.21487423701E+02 -0.27221686855E+02  0.10279151692E+02  0.36171681908E+02  0.00000000000E+00 0.  1.
</event>
<event>
 5   0  0.2392100E+01  0.7941499E+02  0.7957747E-01  0.1329145E+00
       -2   -1    0    0    0  501  0.00000000000E+00  0.00000000000E+00  0.28725168881E+03  0.28725168881E+03  0.00000000000E+00 0.  1.
        1   -1    0    0  501    0  0.00000000000E+00  0.00000000000E+00 -0.54888624729E+01  0.54888624729E+01  0.00000000000E+00 0. -1.
      -24    2    1    2    0    0  0.00000000000E+00  0.00000000000E+00  0.28176282633E+03  0.29274055128E+03  0.79414986369E+02 0.  0.
       11    1    3    3    0    0  0.37053515665E+02  0.87503207761E+01  0.99314743894E+02  0.10636234997E+03  0.00000000000E+00 0. -1.
      -12    1    3    3    0    0 -0.37053515665E+02 -0.87503207761E+01  0.18244808244E+03  0.18637820131E+03  0.00000000000E+00 0.  1.
</event>
<event>
 5   0  0.2392100E+01  0.8036540E+02  0.7957747E-01  0.1326586E+00
        1   -1    0    0  501    0  0.00000000000E+00  0.00000000000E+00  0.80708265572E+01  0.80708265572E+01  0.00000000000E+00 0. -1.
       -2   -1    0    0    0  501  0.00000000000E+00  0.00000000000E+00 -0.20005997523E+03  0.20005997523E+03  0.00000000000E+00 0.  1.
      -24    2    1    2    0    0  0.00000000000E+00  0.00000000000E+00 -0.19198914868E+03  0.20813080179E+03  0.80365399549E+02 0.  0.
       11    1    3    3    0    0 -0.32704328844E+02 -0.17880608795E+02 -0.57116412004E+02  0.68202447289E+02  0.00000000000E+00 0. -1.
      -12    1    3    3    0    0  0.32704328844E+02  0.17880608795E+02 -0.13487273667E+03  0.13992835450E+03  0.00000000000E+00 0.  1.
</event>
<event>
 5   0  0.2392100E+01  0.8523633E+02  0.7957747E-01  0.1314069E+00
       -2   -1    0    0    0  501  0.00000000000E+00  0.00000000000E+00  0.19831918069E+02  0.19831918069E+02  0.00000000000E+00 0.  1.
        1   -1    0    0  501    0  0.00000000000E+00  0.00000000000E+00 -0.91585090125E+02  0.91585090125E+02  0.00000000000E+00 0. -1.
      -24    2    1    2    0    0  0.00000000000E+00  0.00000000000E+00 -0.71753172056E+02  0.11141700819E+03  0.85236330370E+02 0.  0.
       11    1    3    3    0    0  0.95851600198E+00  0.25754030049E+02 -0.80245158222E+02  0.84282111001E+02  0.00000000000E+00 0. -1.
      -12    1    3    3    0    0 -0.95851600198E+00 -0.25754030049E+02  0.84919861660E+01  0.27134897194E+02  0.00000000000E+00 0.  1.
</event>
<event>
 5   0  0.2392100E+01  0.7911832E+02  0.7957747E-01  0.1329952E+00
       -4   -1    0    0    0  501  0.00000000000E+00  0.00000000000E+00  0.71147263773E+01  0.71147263773E+01  0.00000000000E+00 0.  1.
        3   -1    0    0  501    0  0.00000000000E+00  0.00000000000E+00 -0.21995606076E+03  0.21995606076E+03  0.00000000000E+00 0. -1.
      -24    2    1    2    0    0  0.00000000000E+00  0.00000000000E+00 -0.21284133438E+03  0.22707078713E+03  0.79118321198E+02 0.  0.
       11    1    3    3    0    0 -0.25501112066E+02 -0.72879141073E+01 -0.22181599538E+02  0.34575190046E+02  0.00000000000E+00 0. -1.
      -12    1    3    3    0    0  0.25501112066E+02  0.72879141073E+01 -0.19065973484E+03  0.19249559709E+03  0.00000000000E+00 0.  1.
</event>
<event>
 5   0  0.2392100E+01  0.8173104E+02  0.7957747E-01  0.1322977E+00
        1   -1    0    0  501    0  0.00000000000E+00  0.00000000000E+00  0.84331385185E+01  0.84331385185E+01  0.00000000000E+00 0. -1.
       -2   -1    0    0    0  501  0.00000000000E+00  0.00000000000E+00 -0.19802720370E+03  0.19802720370E+03  0.00000000000E+00 0.  1.
      -24    2    1    2    0    0  0.00000000000E+00  0.00000000000E+00 -0.18959406518E+03  0.20646034221E+03  0.81731042798E+02 0.  0.
       11    1    3    3    0    0  0.42895417216E+01 -0.40601085383E+02 -0.99275091340E+02  0.10734240571E+03  0.00000000000E+00 0. -1.
      -12    1    3    3    0    0 -0.42895417216E+01  0.40601085383E+02 -0.90318973838E+02  0.99117936508E+02  0.00000000000E+00 0.  1.
</event>
<event>
 5   0  0.2392100E+01  0.8047675E+02  0.7957747E-01  0.1326288E+00
       -2   -1    0    0    0  501  0.00000000000E+00  0.00000000000E+00  0.78289400943E+01  0.78289400943E+01  0.00000000000E+00 0.  1.
        1   -1    0    0  501    0  0.00000000000E+00  0.00000000000E+00 -0.20681305257E+03  0.20681305257E+03  0.00000000000E+00 0. -1.
      -24    2    1    2    0    0  0.00000000000E+00  0.00000000000E+00 -0.19898411247E+03  0.21464199266E+03  0.80476754390E+02 0.  0.
       11    1    3    3    0    0 -0.33826179686E+02 -0.19725360704E+02 -0.12420107371E+03  0.13022752012E+03  0.00000000000E+00 0. -1.
      -12    1    3    3    0    0  0.33826179686E+02  0.19725360704E+02 -0.74783038765E+02  0.84414472539E+02  0.00000000000E+00 0.  1.
</event>
<event>
 5   0  0.2392100E+01  0.8111112E+02  0.7957747E-01  0.1324605E+00
       -2   -1    0    0    0  501  0.00000000000E+00  0.00000000000E+00  0.43700291762E+01  0.43700291762E+01  0.00000000000E+00 0.  1.
        1   -1    0    0  501    0  0.00000000000E+00  0.00000000000E+00 -0.37637125291E+03  0.37637125291E+03  0.00000000000E+00 0. -1.
      -24    2    1    2    0    0  0.00000000000E+00  0.00000000000E+00 -0.37200122373E+03  0.38074128208E+03  0.81111117766E+02 0.  0.
       11    1    3    3    0    0  0.16631925764E+02  0.36904927815E+02 -0.17435146097E+03  0.17898890076E+03  0.00000000000E+00 0. -1.
      -12    1    3    3    0    0 -0.16631925764E+02 -0.36904927815E+02 -0.19764976276E+03  0.20175238132E+03  0.00000000000E+00 0.  1.
</event>
<event>
 5   0  0.2392100E+01  0.8047997E+02  0.7957747E-01  0.1326280E+00
        1   -1    0    0  501    0  0.00000000000E+00  0.00000000000E+00  0.40008751241E+01  0.40008751241E+01  0.00000000000E+00 0. -1.
       -2   -1    0    0    0  501  0.00000000000E+00  0.00000000000E+00 -0.40472558090E+03  0.40472558090E+03  0.00000000000E+00 0.  1.
      -24    2    1    2    0    0  0.00000000000E+00  0.00000000000E+00 -0.40072470577E+03  0.40872645602E+03  0.80479972881E+02 0.  0.
       11    1    3    3    0    0 -0.32268220555E+01  0.28448203646E+02 -0.56758507869E+02  0.63570754965E+02  0.00000000000E+00 0. -1.
      -12    1    3    3    0    0  0.32268220555E+01 -0.28448203646E+02 -0.34396619790E+03  0.34515570106E+03  0.00000000000E+00 0.  1.
</event>
<event>
 5   0  0.2392100E+01  0.8003296E+02  0.7957747E-01  0.1327476E+00
       -2   -1    0    0    0  501  0.00000000000E+00  0.00000000000E+00  0.12493805778E+02  0.12493805778E+02  0.00000000000E+00 0.  1.
        1   -1    0    0  501    0  0.00000000000E+00  0.00000000000E+00 -0.12816901254E+03  0.12816901254E+03  0.00000000000E+00 0. -1.
      -24    2    1    2    0    0  0.00000000000E+00  0.00000000000E+00 -0.11567520676E+03  0.14066281831E+03  0.80032961944E+02 0.  0.
       11    1    3    3    0    0  0.21452861843E+02 -0.39350557510E+01 -0.11680394244E+03  0.11882285519E+03  0.00000000000E+00 0. -1.
      -12    1    3    3    0    0 -0.21452861843E+02  0.39350557510E+01  0.11287356853E+01  0.21839963124E+02  0.00000000000E+00 0.  1.
</event>
<event>
 5   0  0.2392100E+01  0.7841072E+02  0.7957747E-01  0.1331894E+00
       -4   -1    0    0    0  501  0.00000000000E+00  0.00000000000E+00  0.95247508085E+02  0.95247508085E+02  0.00000000000E+00 0.  1.
        3   -1    0    0  501    0  0.00000000000E+00  0.00000000000E+00 -0.16137538120E+02  0.16137538120E+02  0.00000000000E+00 0. -1.
      -24    2    1    2    0    0  0.00000000000E+00  0.00000000000E+00  0.79109969965E+02  0.11138504621E+03  0.78410721017E+02 0.  0.
       11    1    3    3    0    0 -0.79428619376E+01  0.63759951474E+01 -0.14225251516E+02  0.17495718064E+02  0.00000000000E+00 0. -1.
      -12    1    3    3    0    0  0.79428619376E+01 -0.63759951474E+01  0.93335221481E+02  0.93889328141E+02  0.00000000000E+00 0.  1.
</event>
<event>
 5   0  0.2392100E+01  0.7888127E+02  0.7957747E-01  0.1330600E+00
        1   -1    0    0  501    0  0.00000000000E+00  0.00000000000E+00  0.70886089202E+02  0.70886089202E+02  0.00000000000E+00 0. -1.
       -2   -1    0    0    0  501  0.00000000000E+00  0.00000000000E+00 -0.21944553889E+02  0.21944553889E+02  0.00000000000E+00 0.  1.
      -24    2    1    2    0    0  0.00000000000E+00  0.00000000000E+00  0.48941535313E+02  0.92830643091E+02  0.78881267852E+02 0.  0.
       11    1    3    3    0    0  0.32065343107E+02  0.60578298904E+01  0.50539306373E+02  0.60158997833E+02  0.00000000000E+00 0. -1.
      -12    1    3    3    0    0 -0.32065343107E+02 -0.60578298904E+01 -0.15977710603E+01  0.32671645258E+02  0.00000000000E+00 0.  1.
</event>
<event>
 5   0  0.2392100E+01  0.8117485E+02  0.7957747E-01  0.1324437E+00
       -2   -1    0    0    0  501  0.00000000000E+00  0.00000000000E+00  0.36750869416E+02  0.36750869416E+02  0.00000000000E+00 0.  1.
        1   -1    0    0  501    0  0.00000000000E+00  0.00000000000E+00 -0.44824491425E+02  0.44824491425E+02  0.00000000000E+00 0. -1.
      -24    2    1    2    0    0  0.00000000000E+00  0.00000000000E+00 -0.80736220083E+01  0.81575360841E+02  0.81174849085E+02 0.  0.
       11    1    3    3    0    0  0.27664371562E+02 -0.46281116539E+01 -0.33517574682E+02  0.43705430829E+02  0.00000000000E+00 0. -1.
      -12    1    3    3    0    0 -0.27664371562E+02  0.46281116539E+01  0.25443952674E+02  0.37869930012E+02  0.00000000000E+00 0.  1.
</event>
<event>
 5   0  0.2392100E+01  0.8155466E+02  0.7957747E-01  0.1323439E+00
        3   -1    0    0  501    0  0.00000000000E+00  0.00000000000E+00  0.57192105742E+02  0.57192105742E+02  0.00000000000E+00 0. -1.
       -4   -1    0    0    0  501  0.00000000000E+00  0.00000000000E+00 -0.29073779074E+02  0.29073779074E+02  0.00000000000E+00 0.  1.
      -24    2    1    2    0    0  0.00000000000E+00  0.00000000000E+00  0.28118326668E+02  0.86265884816E+02  0.81554660127E+02 0.  0.
       11    1    3    3    0    0 -0.25175044549E+02 -0.88126663397E+00  0.47977588278E+02  0.54188637886E+02  0.00000000000E+00 0. -1.
      -12    1    3    3    0    0  0.25175044549E+02  0.88126663397E+00 -0.19859261610E+02  0.32077246930E+02  0.00000000000E+00 0.  1.
</event>
<event>
 5   0  0.2392100E+01  0.7926891E+02  0.7957747E-01  0.1329542E+00
       -2   -1    0    0    0  501  0.00000000000E+00  0.00000000000E+00  0.79249826359E+02  0.79249826359E+02  0.00000000000E+00 0.  1.
        1   -1    0    0  501    0  0.00000000000E+00  0.00000000000E+00 -0.19821999279E+02  0.19821999279E+02  0.00000000000E+00 0. -1.
      -24    2    1    2    0    0  0.00000000000E+00  0.00000000000E+00  0.59427827080E+02  0.99071825638E+02  0.79268909440E+02 0.  0.
       11    1    3    3    0    0  0.38093802083E+02  0.10309610217E+02  0.34299947367E+02  0.52286826346E+02  0.00000000000E+00 0. -1.
      -12    1    3    3    0    0 -0.38093802083E+02 -0.10309610217E+02  0.25127879713E+02  0.46784999292E+02  0.00000000000E+00 0.  1.
</event>
<event>
 5   0  0.2392100E+01  0.8066140E+02  0.7957747E-01  0.1325797E+00
        1   -1    0    0  501    0  0.00000000000E+00  0.00000000000E+00  0.69712719487E+02  0.69712719487E+02  0.00000000000E+00 0. -1.
       -2   -1    0    0    0  501  0.00000000000E+00  0.00000000000E+00 -0.23332405975E+02  0.23332405975E+02  0.00000000000E+00 0.  1.
      -24    2    1    2    0    0  0.00000000000E+00  0.00000000000E+00  0.46380313512E+02  0.93045125462E+02  0.80661402733E+02 0.  0.
       11    1    3    3    0    0 -0.37487639297E+02 -0.46412383483E+01  0.68890054338E+01  0.38396908591E+02  0.00000000000E+00 0. -1.
      -12    1    3    3    0    0  0.37487639297E+02  0.46412383483E+01  0.39491308078E+02  0.54648216871E+02  0.00000000000E+00 0.  1.
</event>
<event>
 5   0  0.2392100E+01  0.8122921E+02  0.7957747E-01  0.1324294E+00
        1   -1    0    0  501    0  0.00000000000E+00  0.00000000000E+00  0.55651766954E+02  0.55651766954E+02  0.00000000000E+00 0. -1.
       -2   -1    0    0    0  501  0.00000000000E+00  0.00000000000E+00 -0.29640499636E+02  0.29640499636E+02  0.00000000000E+00 0.  1.
      -24    2    1    2    0    0  0.00000000000E+00  0.00000000000E+00  0.26011267318E+02  0.85292266590E+02  0.81229210956E+02 0.  0.
       11    1    3    3    0    0  0.33462969184E+01 -0.32270212533E+02  0.38660986255E+02  0.50470151359E+02  0.00000000000E+00 0. -1.
      -12    1    3    3    0    0 -0.33462969184E+01  0.32270212533E+02 -0.12649718936E+02  0.34822115231E+02  0.00000000000E+00 0.  1.
</event>
<event>
 5   0  0.2392100E+01  0.7902460E+02  0.7957747E-01  0.1330208E+00
       -4   -1    0    0    0  501  0.00000000000E+00  0.00000000000E+00  0.10943241566E+03  0.10943241566E+03  0.00000000000E+00 0.  1.
        3   -1    0    0  501    0  0.00000000000E+00  0.00000000000E+00 -0.14266538141E+02  0.14266538141E+02  0.00000000000E+00 0. -1.
      -24    2    1    2    0    0  0.00000000000E+00  0.00000000000E+00  0.95165877514E+02  0.12369895380E+03  0.79024596977E+02 0.  0.
       11    1    3    3    0    0 -0.20960088107E+02 -0.33262890931E+02  0.41424927648E+02  0.57111906264E+02  0.00000000000E+00 0. -1.
      -12    1    3    3    0    0  0.20960088107E+02  0.33262890931E+02  0.53740949867E+02  0.66587047533E+02  0.00000000000E+00 0.  1.
</event>
<event>
 5   0  0.2392100E+01  0.7389772E+02  0.7957747E-01  0.1344850E+00
       -2   -1    0    0    0  501  0.00000000000E+00  0.00000000000E+00  0.72764629667E+01  0.72764629667E+01  0.00000000000E+00 0.  1.
        1   -1    0    0  501    0  0.00000000000E+00  0.00000000000E+00 -0.18762112552E+03  0.18762112552E+03  0.00000000000E+00 0. -1.
      -24    2    1    2    0    0  0.00000000000E+00  0.00000000000E+00 -0.18034466255E+03  0.19489758849E+03  0.73897717735E+02 0.  0.
       11    1    3    3    0    0 -0.26833861426E+02 -0.94605483782E+01 -0.15234221242E+03  0.15497647492E+03  0.00000000000E+00 0. -1.
      -12    1    3    3    0    0  0.26833861426E+02  0.94605483782E+01 -0.28002450132E+02  0.39921113562E+02  0.00000000000E+00 0.  1.
</event>
<event>
 5   0  0.2392100E+01  0.8199683E+02  0.7957747E-01  0.1322284E+00
        1   -1    0    0  501    0  0.00000000000E+00  0.00000000000E+00  0.13067611142E+03  0.13067611142E+03  0.00000000000E+00 0. -1.
       -2   -1    0    0    0  501  0.00000000000E+00  0.00000000000E+00 -0.12862872626E+02  0.12862872626E+02  0.00000000000E+00 0.  1.
      -24    2    1    2    0    0  0.00000000000E+00  0.00000000000E+00  0.11781323879E+03  0.14353898404E+03  0.81996833509E+02 0.  0.
       11    1    3    3    0    0  0.39637534371E+02  0.93673536411E+01  0.50697947992E+02  0.65032018082E+02  0.00000000000E+00 0. -1.
      -12    1    3    3    0    0 -0.39637534371E+02 -0.93673536411E+01  0.67115290799E+02  0.78506965960E+02  0.00000000000E+00 0.  1.
</event>
<event>
 5   0  0.2392100E+01  0.7639446E+02  0.7957747E-01  0.1337557E+00
       -2   -1    0    0    0  501  0.00000000000E+00  0.00000000000E+00  0.39582825083E+01  0.39582825083E+01  0.00000000000E+00 0.  1.
        1   -1    0    0  501    0  0.00000000000E+00  0.00000000000E+00 -0.36860134825E+03  0.36860134825E+03  0.00000000000E+00 0. -1.
      -24    2    1    2    0    0  0.00000000000E+00  0.00000000000E+00 -0.36464306574E+03  0.37255963076E+03  0.76394457111E+02 0.  0.
       11    1    3    3    0    0 -0.18698729886E+01 -0.37607625644E+02 -0.21362365578E+03  0.21691679566E+03  0.00000000000E+00 0. -1.
      -12    1    3    3    0    0  0.18698729886E+01  0.37607625644E+02 -0.15101940996E+03  0.15564283510E+03  0.00000000000E+00 0.  1.
</event>
<event>
 5   0  0.2392100E+01  0.8131711E+02  0.7957747E-01  0.1324062E+00
       -2   -1    0    0    0  501  0.00000000000E+00  0.00000000000E+00  0.22121919812E+02  0.22121919812E+02  0.00000000000E+00 0.  1.
        1   -1    0    0  501    0  0.00000000000E+00  0.00000000000E+00 -0.74727603721E+02  0.74727603721E+02  0.00000000000E+00 0. -1.
      -24    2    1    2    0    0  0.00000000000E+00  0.00000000000E+00 -0.52605683909E+02  0.96849523533E+02  0.81317109079E+02 0.  0.
       11    1    3    3    0    0  0.21896393741E+02 -0.10328732460E+02 -0.65206851735E+02  0.69556223922E+02  0.00000000000E+00 0. -1.
      -12    1    3    3    0    0 -0.21896393741E+02  0.10328732460E+02  0.12601167825E+02  0.27293299611E+02  0.00000000000E+00 0.  1.
</event>
<event>
 5   0  0.2392100E+01  0.8088417E+02  0.7957747E-01  0.1325205E+00
       -2   -1    0    0    0  501  0.00000000000E+00  0.00000000000E+00  0.81562627485E+02  0.81562627485E+02  0.00000000000E+00 0.  1.
        1   -1    0    0  501    0  0.00000000000E+00  0.00000000000E+00 -0.20052838270E+02  0.20052838270E+02  0.00000000000E+00 0. -1.
      -24    2    1    2    0    0  0.00000000000E+00  0.00000000000E+00  0.61509789215E+02  0.10161546576E+03  0.80884168484E+02 0.  0.
       11    1    3    3    0    0 -0.23246801659E+02 -0.11794067099E+02 -0.80902032653E+01  0.27294050541E+02  0.00000000000E+00 0. -1.
      -12    1    3    3    0    0  0.23246801659E+02  0.11794067099E+02  0.69599992480E+02  0.74321415214E+02  0.00000000000E+00 0.  1.
</event>
<event>
 5   0  0.2392100E+01  0.8006120E+02  0.7957747E-01  0.1327400E+00
       -2   -1    0    0    0  501  0.00000000000E+00  0.00000000000E+00  0.94801664725E+01  0.94801664725E+01  0.00000000000E+00 0.  1.
        1   -1    0    0  501    0  0.00000000000E+00  0.00000000000E+00 -0.16903173531E+03  0.16903173531E+03  0.00000000000E+00 0. -1.
      -24    2    1    2    0    0  0.00000000000E+00  0.00000000000E+00 -0.15955156884E+03  0.17851190179E+03  0.80061201338E+02 0.  0.
       11    1    3    3    0    0 -0.33461440338E+02  0.70601046136E+01 -0.12616925753E+03  0.13072182149E+03  0.00000000000E+00 0. -1.
      -12    1    3    3    0    0  0.33461440338E+02 -0.70601046136E+01 -0.33382311307E+02  0.47790080298E+02  0.00000000000E+00 0.  1.
</event>
<event>
 5   0  0.2392100E+01  0.8300340E+02  0.7957747E-01  0.1319686E+00
       -2   -1    0    0    0  501  0.00000000000E+00  0.00000000000E+00  0.35428063539E+02  0.35428063539E+02  0.00000000000E+00 0.  1.
        1   -1    0    0  501    0  0.00000000000E+00  0.00000000000E+00 -0.48616572991E+02  0.48616572991E+02  0.00000000000E+00 0. -1.
      -24    2    1    2    0    0  0.00000000000E+00  0.00000000000E+00 -0.13188509453E+02  0.84044636530E+02  0.83003398411E+02 0.  0.
       11    1    3    3    0    0 -0.33359544813E+02  0.23056105514E+02  0.23453038674E+01  0.40619498788E+02  0.00000000000E+00 0. -1.
      -12    1    3    3    0    0  0.33359544813E+02 -0.23056105514E+02 -0.15533813320E+02  0.43425137741E+02  0.00000000000E+00 0.  1.
</event>
<event>
 5   0  0.2392100E+01  0.8113994E+02  0.7957747E-01  0.1324529E+00
       -4   -1    0    0    0  501  0.00000000000E+00  0.00000000000E+00  0.55637728414E+02  0.55637728414E+02  0.00000000000E+00 0.  1.
        3   -1    0    0  501    0  0.00000000000E+00  0.00000000000E+00 -0.29582849617E+02  0.29582849617E+02  0.00000000000E+00 0. -1.
      -24    2    1    2    0    0  0.00000000000E+00  0.00000000000E+00  0.26054878798E+02  0.85220578031E+02  0.81139942142E+02 0.  0.
       11    1    3    3    0    0 -0.33334385244E+02  0.22121300251E+02  0.59514536964E+01  0.40446915402E+02  0.00000000000E+00 0. -1.
      -12    1    3    3    0    0  0.33334385244E+02 -0.22121300251E+02  0.20103425101E+02  0.44773662629E+02  0.00000000000E+00 0.  1.
</event>
<event>
 5   0  0.2392100E+01  0.7960165E+02  0.7957747E-01  0.1328639E+00
        1   -1    0    0  501    0  0.00000000000E+00  0.00000000000E+00  0.41399952456E+02  0.41399952456E+02  0.00000000000E+00 0. -1.
       -2   -1    0    0    0  501  0.00000000000E+00  0.00000000000E+00 -0.38263467531E+02  0.38263467531E+02  0.00000000000E+00 0.  1.
      -24    2    1    2    0    0  0.00000000000E+00  0.00000000000E+00  0.31364849253E+01  0.79663419987E+02  0.79601651656E+02 0.  0.
       11    1    3    3    0    0  0.16171505281E+02  0.36122185000E+02  0.57876621033E+01  0.39997835752E+02  0.00000000000E+00 0. -1.
      -12    1    3    3    0    0 -0.16171505281E+02 -0.36122185000E+02 -0.26511771780E+01  0.39665584235E+02  0.00000000000E+00 0.  1.
</event>
<event>
 5   0  0.2392100E+01  0.9881619E+02  0.7957747E-01  0.1283642E+00
        1   -1    0    0  501    0  0.00000000000E+00  0.00000000000E+00  0.55352810054E+02  0.55352810054E+02  0.00000000000E+00 0. -1.
       -2   -1    0    0    0  501  0.00000000000E+00  0.00000000000E+00 -0.44101820943E+02  0.44101820943E+02  0.00000000000E+00 0.  1.
      -24    2    1    2    0    0  0.00000000000E+00  0.00000000000E+00  0.11250989111E+02  0.99454630997E+02  0.98816187291E+02 0.  0.
       11    1    3    3    0    0  0.31087739654E+02 -0.38119378448E+02  0.94516474591E+00  0.49197844531E+02  0.00000000000E+00 0. -1.
      -12    1    3    3    0    0 -0.31087739654E+02  0.38119378448E+02  0.10305824365E+02  0.50256786466E+02  0.00000000000E+00 0.  1.
</event>
<event>
 5   0  0.2392100E+01  0.8021493E+02  0.7957747E-01  0.1326988E+00
       -4   -1    0    0    0  501  0.00000000000E+00  0.00000000000E+00  0.27135723357E+03  0.27135723357E+03  0.00000000000E+00 0.  1.
        3   -1    0    0  501    0  0.00000000000E+00  0.00000000000E+00 -0.59280116858E+01  0.59280116858E+01  0.00000000000E+00 0. -1.
      -24    2    1    2    0    0  0.00000000000E+00  0.00000000000E+00  0.26542922189E+03  0.27728524526E+03  0.80214932566E+02 0.  0.
       11    1    3    3    0    0  0.19571354726E+02  0.30824337885E+02  0.75345510260E+02  0.83726481164E+02  0.00000000000E+00 0. -1.
      -12    1    3    3    0    0 -0.19571354726E+02 -0.30824337885E+02  0.19008371163E+03  0.19355876409E+03  0.00000000000E+00 0.  1.
</event>
<event>
 5   0  0.2392100E+01  0.8043660E+02  0.7957747E-01  0.1326395E+00
       -2   -1    0    0    0  501  0.00000000000E+00  0.00000000000E+00  0.84675269299E+03  0.84675269299E+03  0.00000000000E+00 0.  1.
        1   -1    0    0  501    0  0.00000000000E+00  0.00000000000E+00 -0.19102529247E+01  0.19102529247E+01  0.00000000000E+00 0. -1.
      -24    2    1    2    0    0  0.00000000000E+00  0.00000000000E+00  0.84484244007E+03  0.84866294592E+03  0.80436603815E+02 0.  0.
       11    1    3    3    0    0  0.20272904495E+02  0.27153358709E+02  0.19387815742E+03  0.19681726416E+03  0.00000000000E+00 0. -1.
      -12    1    3    3    0    0 -0.20272904495E+02 -0.27153358709E+02  0.65096428265E+03  0.65184568176E+03  0.00000000000E+00 0.  1.
</event>
<event>
 5   0  0.2392100E+01  0.8002762E+02  0.7957747E-01  0.1327491E+00
        3   -1    0    0  501    0  0.00000000000E+00  0.00000000000E+00  0.10690801651E+03  0.10690801651E+03  0.00000000000E+00 0. -1.
       -4   -1    0    0    0  501  0.00000000000E+00  0.00000000000E+00 -0.14976470986E+02  0.14976470986E+02  0.00000000000E+00 0.  1.
      -24    2    1    2    0    0  0.00000000000E+00  0.00000000000E+00  0.91931545523E+02  0.12188448750E+03  0.80027615420E+02 0.  0.
       11    1    3    3    0    0 -0.20061469776E+02 -0.32032552910E+02  0.65972490573E+02  0.76032338698E+02  0.00000000000E+00 0. -1.
      -12    1    3    3    0    0  0.20061469776E+02  0.32032552910E+02  0.25959054950E+02  0.45852148798E+02  0.00000000000E+00 0.  1.
</event>
<event>
 5   0  0.2392100E+01  0.7333468E+02  0.7957747E-01  0.1346540E+00
       -2   -1    0    0    0  501  0.00000000000E+00  0.00000000000E+00  0.36712413962E+02  0.36712413962E+02  0.00000000000E+00 0.  1.
        1   -1    0    0  501    0  0.00000000000E+00  0.00000000000E+00 -0.36622325702E+02  0.36622325702E+02  0.00000000000E+00 0. -1.
      -24    2    1    2    0    0  0.00000000000E+00  0.00000000000E+00  0.90088259547E-01  0.73334739664E+02  0.73334684329E+02 0.  0.
       11    1    3    3    0    0  0.34634554231E+02 -0.10100991372E+02  0.65957442990E+01  0.36675417057E+02  0.00000000000E+00 0. -1.
      -12    1    3    3    0    0 -0.34634554231E+02  0.10100991372E+02 -0.65056560394E+01  0.36659322607E+02  0.00000000000E+00 0.  1.
</event>
<event>
 5   0  0.2392100E+01  0.8021474E+02  0.7957747E-01  0.1326989E+00
        1   -1    0    0  501    0  0.00000000000E+00  0.00000000000E+00  0.13515587022E+02  0.13515587022E+02  0.00000000000E+00 0. -1.
       -2   -1    0    0    0  501  0.00000000000E+00  0.00000000000E+00 -0.11901822676E+03  0.11901822676E+03  0.00000000000E+00 0.  1.
      -24    2    1    2    0    0  0.00000000000E+00  0.00000000000E+00 -0.10550263974E+03  0.13253381378E+03  0.80214741812E+02 0.  0.
       11    1    3    3    0    0 -0.18091314043E+02  0.12625950455E+02  0.25897848555E+01  0.22212997418E+02  0.00000000000E+00 0. -1.
      -12    1    3    3    0    0  0.18091314043E+02 -0.12625950455E+02 -0.10809242459E+03  0.11032081636E+03  0.00000000000E+00 0.  1.
</event>
<event>
 5   0  0.2392100E+01  0.7904169E+02  0.7957747E-01  0.1330161E+00
        1   -1    0    0  501    0  0.00000000000E+00  0.00000000000E+00  0.99387012401E+01  0.99387012401E+01  0.00000000000E+00 0. -1.
       -2   -1    0    0    0  501  0.00000000000E+00  0.00000000000E+00 -0.15715303528E+03  0.15715303528E+03  0.00000000000E+00 0.  1.
      -24    2    1    2    0    0  0.00000000000E+00  0.00000000000E+00 -0.14721433404E+03  0.16709173652E+03  0.79041686890E+02 0.  0.
       11    1    3    3    0    0  0.18175570237E+02  0.85015238702E+01 -0.16306156632E+01  0.20131720468E+02  0.00000000000E+00 0. -1.
      -12    1    3    3    0    0 -0.18175570237E+02 -0.85015238702E+01 -0.14558371838E+03  0.14696001605E+03  0.00000000000E+00 0.  1.
</event>
<event>
 5   0  0.2392100E+01  0.8041092E+02  0.7957747E-01  0.1326464E+00
       -2   -1    0    0    0  501  0.00000000000E+00  0.00000000000E+00  0.10258063739E+02  0.10258063739E+02  0.00000000000E+00 0.  1.
        1   -1    0    0  501    0  0.00000000000E+00  0.00000000000E+00 -0.15758130081E+03  0.15758130081E+03  0.00000000000E+00 0. -1.
      -24    2    1    2    0    0  0.00000000000E+00  0.00000000000E+00 -0.14732323707E+03  0.16783936455E+03  0.80410920346E+02 0.  0.
       11    1    3    3    0    0 -0.18183231557E+02  0.29505857585E+02 -0.11619554121E+03  0.12125439926E+03  0.00000000000E+00 0. -1.
      -12    1    3    3    0    0  0.18183231557E+02 -0.29505857585E+02 -0.31127695859E+02  0.46584965291E+02  0.00000000000E+00 0.  1.
</event>
<event>
 5   0  0.2392100E+01  0.8035280E+02  0.7957747E-01  0.1326619E+00
       -2   -1    0    0    0  501  0.00000000000E+00  0.00000000000E+00  0.65026243906E+02  0.65026243906E+02  0.00000000000E+00 0.  1.
        1   -1    0    0  501    0  0.00000000000E+00  0.00000000000E+00 -0.24822945963E+02  0.24822945963E+02  0.00000000000E+00 0. -1.
      -24    2    1    2    0    0  0.00000000000E+00  0.00000000000E+00  0.40203297942E+02  0.89849189869E+02  0.80352795563E+02 0.  0.
       11    1    3    3    0    0 -0.28427779456E+02  0.23962073514E+02  0.37126830123E+02  0.52542564906E+02  0.00000000000E+00 0. -1.
      -12    1    3    3    0    0  0.28427779456E+02 -0.23962073514E+02  0.30764678189E+01  0.37306624963E+02  0.00000000000E+00 0.  1.
</event>
<event>
 5   0  0.2392100E+01  0.7994830E+02  0.7957747E-01  0.1327704E+00
        3   -1    0    0  501    0  0.00000000000E+00  0.00000000000E+00  0.17685646921E+03  0.17685646921E+03  0.00000000000E+00 0. -1.
       -4   -1    0    0    0  501  0.00000000000E+00  0.00000000000E+00 -0.90351941777E+01  0.90351941777E+01  0.00000000000E+00 0.  1.
      -24    2    1    2    0    0  0.00000000000E+00  0.00000000000E+00  0.16782127503E+03  0.18589166338E+03  0.79948296814E+02 0.  0.
       11    1    3    3    0    0  0.26112745524E+02 -0.28194876940E+02  0.58322805843E+02  0.69845373833E+02  0.00000000000E+00 0. -1.
      -12    1    3    3    0    0 -0.26112745524E+02  0.28194876940E+02  0.10949846918E+03  0.11604628955E+03  0.00000000000E+00 0.  1.
</event>
<event>
 5   0  0.2392100E+01  0.7952256E+02  0.7957747E-01  0.1328853E+00
        1   -1    0    0  501    0  0.00000000000E+00  0.00000000000E+00  0.27643559827E+02  0.27643559827E+02  0.00000000000E+00 0. -1.
       -2   -1    0    0    0  501  0.00000000000E+00  0.00000000000E+00 -0.57190870921E+02  0.57190870921E+02  0.00000000000E+00 0.  1.
      -24    2    1    2    0    0  0.00000000000E+00  0.00000000000E+00 -0.29547311094E+02  0.84834430748E+02  0.79522556846E+02 0.  0.
       11    1    3    3    0    0 -0.18627279550E+02 -0.11665435770E+02  0.20574232407E+02  0.30105763141E+02  0.00000000000E+00 0. -1.
      -12    1    3    3    0    0  0.18627279550E+02  0.11665435770E+02 -0.50121543501E+02  0.54728667607E+02  0.00000000000E+00 0.  1.
</event>
<event>
 5   0  0.2392100E+01  0.7839806E+02  0.7957747E-01  0.1331929E+00
        1   -1    0    0  501    0  0.00000000000E+00  0.00000000000E+00  0.75696871540E+02  0.75696871540E+02  0.00000000000E+00 0. -1.
       -2   -1    0    0    0  501  0.00000000000E+00  0.00000000000E+00 -0.20298908733E+02  0.20298908733E+02  0.00000000000E+00 0.  1.
      -24    2    1    2    0    0  0.00000000000E+00  0.00000000000E+00  0.55397962807E+02  0.95995780273E+02  0.78398058312E+02 0.  0.
       11    1    3    3    0    0 -0.37743913634E+02  0.10219445480E+02  0.31057637884E+02  0.49936128737E+02  0.00000000000E+00 0. -1.
      -12    1    3    3    0    0  0.37743913634E+02 -0.10219445480E+02  0.24340324923E+02  0.46059651536E+02  0.00000000000E+00 0.  1.
</event>
<event>
 5   0  0.2392100E+01  0.8257015E+02  0.7957747E-01  0.1320799E+00
        3   -1    0    0  501    0  0.00000000000E+00  0.00000000000E+00  0.63157557916E+02  0.63157557916E+02  0.00000000000E+00 0. -1.
       -4   -1    0    0    0  501  0.00000000000E+00  0.00000000000E+00 -0.26987388852E+02  0.26987388852E+02  0.00000000000E+00 0.  1.
      -24    2    1    2    0    0  0.00000000000E+00  0.00000000000E+00  0.36170169064E+02  0.90144946768E+02  0.82570153795E+02 0.  0.
       11    1    3    3    0    0 -0.11014419440E+02  0.14901252416E+02  0.58362552770E+02  0.61233588209E+02  0.00000000000E+00 0. -1.
      -12    1    3    3    0    0  0.11014419440E+02 -0.14901252416E+02 -0.22192383706E+02  0.28911358559E+02  0.00000000000E+00 0.  1.
</event>
<event>
 5   0  0.2392100E+01  0.8302607E+02  0.7957747E-01  0.1319628E+00
       -2   -1    0    0    0  501  0.00000000000E+00  0.00000000000E+00  0.15853511919E+02  0.15853511919E+02  0.00000000000E+00 0.  1.
        1   -1    0    0  501    0  0.00000000000E+00  0.00000000000E+00 -0.10870349767E+03  0.10870349767E+03  0.00000000000E+00 0. -1.
      -24    2    1    2    0    0  0.00000000000E+00  0.00000000000E+00 -0.92849985752E+02  0.12455700959E+03  0.83026072915E+02 0.  0.
       11    1    3    3    0    0  0.31925169470E+02 -0.15363480305E+02 -0.78882365290E+02  0.86473582825E+02  0.00000000000E+00 0. -1.
      -12    1    3    3    0    0 -0.31925169470E+02  0.15363480305E+02 -0.13967620462E+02  0.38083426765E+02  0.00000000000E+00 0.  1.
</event>
<event>
 5   0  0.2392100E+01  0.7994287E+02  0.7957747E-01  0.1327718E+00
       -2   -1    0    0    0  501  0.00000000000E+00  0.00000000000E+00  0.23985879862E+03  0.23985879862E+03  0.00000000000E+00 0.  1.
        1   -1    0    0  501    0  0.00000000000E+00  0.00000000000E+00 -0.66610681698E+01  0.66610681698E+01  0.00000000000E+00 0. -1.
      -24    2    1    2    0    0  0.00000000000E+00  0.00000000000E+00  0.23319773045E+03  0.24651986679E+03  0.79942874823E+02 0.  0.
       11    1    3    3    0    0  0.14477192670E+02  0.36184658902E+02  0.89225546863E+02  0.97365891669E+02  0.00000000000E+00 0. -1.
      -12    1    3    3    0    0 -0.14477192670E+02 -0.36184658902E+02  0.14397218359E+03  0.14915397512E+03  0.00000000000E+00 0.  1.
</event>
<event>
 5   0  0.2392100E+01  0.8248058E+02  0.7957747E-01  0.1321030E+00
        1   -1    0    0  501    0  0.00000000000E+00  0.00000000000E+00  0.22108101047E+03  0.22108101047E+03  0.00000000000E+00 0. -1.
       -2   -1    0    0    0  501  0.00000000000E+00  0.00000000000E+00 -0.76929330293E+01  0.76929330293E+01  0.00000000000E+00 0.  1.
      -24    2    1    2    0    0  0.00000000000E+00  0.00000000000E+00  0.21338807744E+03  0.22877394350E+03  0.82480577291E+02 0.  0.
       11    1    3    3    0    0  0.18295919673E+02  0.34842514797E+02  0.14089238287E+03  0.14628535492E+03  0.00000000000E+00 0. -1.
      -12    1    3    3    0    0 -0.18295919673E+02 -0.34842514797E+02  0.72495694568E+02  0.82488588574E+02  0.00000000000E+00 0.  1.
</event>
<event>
 5   0  0.2392100E+01  0.8031532E+02  0.7957747E-01  0.1326719E+00
        1   -1    0    0  501    0  0.00000000000E+00  0.00000000000E+00  0.15648469658E+02  0.15648469658E+02  0.00000000000E+00 0. -1.
       -2   -1    0    0    0  501  0.00000000000E+00  0.00000000000E+00 -0.10305401778E+03  0.10305401778E+03  0.00000000000E+00 0.  1.
      -24    2    1    2    0    0  0.00000000000E+00  0.00000000000E+00 -0.87405548125E+02  0.11870248744E+03  0.80315320341E+02 0.  0.
       11    1    3    3    0    0 -0.12719803747E+02  0.37517733547E+02 -0.33981472396E+02  0.52193047468E+02  0.00000000000E+00 0. -1.
      -12    1    3    3    0    0  0.12719803747E+02 -0.37517733547E+02 -0.53424075729E+02  0.66509439972E+02  0.00000000000E+00 0.  1.
</event>
<event>
 5   0  0.2392100E+01  0.7978494E+02  0.7957747E-01  0.1328144E+00
       -2   -1    0    0    0  501  0.00000000000E+00  0.00000000000E+00  0.14619924956E+03  0.14619924956E+03  0.00000000000E+00 0.  1.
        1   -1    0    0  501    0  0.00000000000E+00  0.00000000000E+00 -0.10885206444E+02  0.10885206444E+02  0.00000000000E+00 0. -1.
      -24    2    1    2    0    0  0.00000000000E+00  0.00000000000E+00  0.13531404312E+03  0.15708445601E+03  0.79784936259E+02 0.  0.
       11    1    3    3    0    0  0.39293153189E+02 -0.68878198559E+01  0.67415377643E+02  0.78334073638E+02  0.00000000000E+00 0. -1.
      -12    1    3    3    0    0 -0.39293153189E+02  0.68878198559E+01  0.67898665474E+02  0.78750382368E+02  0.00000000000E+00 0.  1.
</event>
<event>
 5   0  0.2392100E+01  0.8166964E+02  0.7957747E-01  0.1323138E+00
        1   -1    0    0  501    0  0.00000000000E+00  0.00000000000E+00  0.25621460970E+03  0.25621460970E+03  0.00000000000E+00 0. -1.
       -2   -1    0    0    0  501  0.00000000000E+00  0.00000000000E+00 -0.65081469134E+01  0.65081469134E+01  0.00000000000E+00 0.  1.
      -24    2    1    2    0    0  0.00000000000E+00  0.00000000000E+00  0.24970646278E+03  0.26272275661E+03  0.81669635025E+02 0.  0.
       11    1    3    3    0    0 -0.86324640605E+01  0.39133955765E+02  0.15008001574E+03  0.15533833092E+03  0.00000000000E+00 0. -1.
      -12    1    3    3    0    0  0.86324640605E+01 -0.39133955765E+02  0.99626447045E+02  0.10738442569E+03  0.00000000000E+00 0.  1.
</event>
<event>
 5   0  0.2392100E+01  0.8043099E+02  0.7957747E-01  0.1326410E+00
        1   -1    0    0  501    0  0.00000000000E+00  0.00000000000E+00  0.16972199570E+03  0.16972199570E+03  0.00000000000E+00 0. -1.
       -2   -1    0    0    0  501  0.00000000000E+00  0.00000000000E+00 -0.95290307194E+01  0.95290307194E+01  0.00000000000E+00 0.  1.
      -24    2    1    2    0    0  0.00000000000E+00  0.00000000000E+00  0.16019296498E+03  0.17925102642E+03  0.80430991808E+02 0.  0.
       11    1    3    3    0    0 -0.10651391591E+02 -0.23024550102E+02  0.14963920963E+03  0.15177442179E+03  0.00000000000E+00 0. -1.
      -12    1    3    3    0    0  0.10651391591E+02  0.23024550102E+02  0.10553755354E+02  0.27476604635E+02  0.00000000000E+00 0.  1.
</event>
<event>
 5   0  0.2392100E+01  0.9461967E+02  0.7957747E-01  0.1292427E+00
        3   -1    0    0  501    0  0.00000000000E+00  0.00000000000E+00  0.23511732070E+02  0.23511732070E+02  0.00000000000E+00 0. -1.
       -4   -1    0    0    0  501  0.00000000000E+00  0.00000000000E+00 -0.95195896943E+02  0.95195896943E+02  0.00000000000E+00 0.  1.
      -24    2    1    2    0    0  0.00000000000E+00  0.00000000000E+00 -0.71684164873E+02  0.11870762901E+03  0.94619668634E+02 0.  0.
       11    1    3    3    0    0 -0.66182749807E+01  0.35061473393E+02  0.31329111976E+01  0.35817923067E+02  0.00000000000E+00 0. -1.
      -12    1    3    3    0    0  0.66182749807E+01 -0.35061473393E+02 -0.74817076070E+02  0.82889705947E+02  0.00000000000E+00 0.  1.
</event>
<event>
 5   0  0.2392100E+01  0.7957898E+02  0.7957747E-01  0.1328701E+00
       -2   -1    0    0    0  501  0.00000000000E+00  0.00000000000E+00  0.43767058409E+03  0.43767058409E+03  0.00000000000E+00 0.  1.
        1   -1    0    0  501    0  0.00000000000E+00  0.00000000000E+00 -0.36173403257E+01  0.36173403257E+01  0.00000000000E+00 0. -1.
      -24    2    1    2    0    0  0.00000000000E+00  0.00000000000E+00  0.43405324376E+03  0.44128792441E+03  0.79578978461E+02 0.  0.
       11    1    3    3    0    0  0.30080389271E+02 -0.24855722813E+02  0.17387068391E+03  0.17819554287E+03  0.00000000000E+00 0. -1.
      -12    1    3    3    0    0 -0.30080389271E+02  0.24855722813E+02  0.26018255985E+03  0.26309238154E+03  0.00000000000E+00 0.  1.
</event>
<event>
 5   0  0.2392100E+01  0.7886751E+02  0.7957747E-01  0.1330638E+00
        1   -1    0    0  501    0  0.00000000000E+00  0.00000000000E+00  0.51906815734E+01  0.51906815734E+01  0.00000000000E+00 0. -1.
       -2   -1    0    0    0  501  0.00000000000E+00  0.00000000000E+00 -0.29957936164E+03  0.29957936164E+03  0.00000000000E+00 0.  1.
      -24    2    1    2    0    0  0.00000000000E+00  0.00000000000E+00 -0.29438868007E+03  0.30477004322E+03  0.78867510985E+02 0.  0.
       11    1    3    3    0    0 -0.32671807438E+02  0.20676777779E+02 -0.11725016732E+03  0.12346083540E+03  0.00000000000E+00 0. -1.
      -12    1    3    3    0    0  0.32671807438E+02 -0.20676777779E+02 -0.17713851275E+03  0.18130920782E+03  0.00000000000E+00 0.  1.
</event>
<event>
 5   0  0.2392100E+01  0.8121299E+02  0.7957747E-01  0.1324336E+00
        1   -1    0    0  501    0  0.00000000000E+00  0.00000000000E+00  0.56339238771E+02  0.56339238771E+02  0.00000000000E+00 0. -1.
       -2   -1    0    0    0  501  0.00000000000E+00  0.00000000000E+00 -0.29267123217E+02  0.29267123217E+02  0.00000000000E+00 0.  1.
      -24    2    1    2    0    0  0.00000000000E+00  0.00000000000E+00  0.27072115554E+02  0.85606361989E+02  0.81212990170E+02 0.  0.
       11    1    3    3    0    0  0.22434046610E+02  0.41740945673E+01  0.48941444309E+02  0.53999763739E+02  0.00000000000E+00 0. -1.
      -12    1    3    3    0    0 -0.22434046610E+02 -0.41740945673E+01 -0.21869328755E+02  0.31606598250E+02  0.00000000000E+00 0.  1.
</event>
<event>
 5   0  0.2392100E+01  0.8121481E+02  0.7957747E-01  0.1324332E+00
       -2   -1    0    0    0  501  0.00000000000E+00  0.00000000000E+00  0.35026230062E+03  0.35026230062E+03  0.00000000000E+00 0.  1.
        1   -1    0    0  501    0  0.00000000000E+00  0.00000000000E+00 -0.47077896683E+01  0.47077896683E+01  0.00000000000E+00 0. -1.
      -24    2    1    2    0    0  0.00000000000E+00  0.00000000000E+00  0.34555451095E+03  0.35497009029E+03  0.81214807518E+02 0.  0.
       11    1    3    3    0    0 -0.38796194818E+02  0.80505504372E+01  0.13392786317E+03  0.13966613272E+03  0.00000000000E+00 0. -1.
      -12    1    3    3    0    0  0.38796194818E+02 -0.80505504372E+01  0.21162664778E+03  0.21530395757E+03  0.00000000000E+00 0.  1.
</event>
<event>
 5   0  0.2392100E+01  0.7947549E+02  0.7957747E-01  0.1328981E+00
       -2   -1    0    0    0  501  0.00000000000E+00  0.00000000000E+00  0.11744878945E+03  0.11744878945E+03  0.00000000000E+00 0.  1.
        1   -1    0    0  501    0  0.00000000000E+00  0.00000000000E+00 -0.13444908378E+02  0.13444908378E+02  0.00000000000E+00 0. -1.
      -24    2    1    2    0    0  0.00000000000E+00  0.00000000000E+00  0.10400388107E+03  0.13089369782E+03  0.79475485862E+02 0.  0.
       11    1    3    3    0    0 -0.25172749644E+02  0.26811137138E+02  0.27210601375E+02  0.45748456001E+02  0.00000000000E+00 0. -1.
      -12    1    3    3    0    0  0.25172749644E+02 -0.26811137138E+02  0.76793279693E+02  0.85145241824E+02  0.00000000000E+00 0.  1.
</event>
<event>
 5   0  0.2392100E+01  0.8028799E+02  0.7957747E-01  0.1326792E+00
       -2   -1    0    0    0  501  0.00000000000E+00  0.00000000000E+00  0.15377037910E+02  0.15377037910E+02  0.00000000000E+00 0.  1.
        1   -1    0    0  501    0  0.00000000000E+00  0.00000000000E+00 -0.10480175124E+03  0.10480175124E+03  0.00000000000E+00 0. -1.
      -24    2    1    2    0    0  0.00000000000E+00  0.00000000000E+00 -0.89424713330E+02  0.12017878915E+03  0.80287994168E+02 0.  0.
       11    1    3    3    0    0  0.19139339439E+02  0.26628403056E+02 -0.79371843490E+02  0.85879425374E+02  0.00000000000E+00 0. -1.
      -12    1    3    3    0    0 -0.19139339439E+02 -0.26628403056E+02 -0.10052869840E+02  0.34299363777E+02  0.00000000000E+00 0.  1.
</event>
<event>
 5   0  0.2392100E+01  0.7792568E+02  0.7957747E-01  0.1333239E+00
        1   -1    0    0  501    0  0.00000000000E+00  0.00000000000E+00  0.91259161576E+03  0.91259161576E+03  0.00000000000E+00 0. -1.
       -2   -1    0    0    0  501  0.00000000000E+00  0.00000000000E+00 -0.16635072391E+01  0.16635072391E+01  0.00000000000E+00 0.  1.
      -24    2    1    2    0    0  0.00000000000E+00  0.00000000000E+00  0.91092810852E+03  0.91425512299E+03  0.77925676362E+02 0.  0.
       11    1    3    3    0    0  0.21929403619E+02 -0.22389222653E+02  0.18385794811E+03  0.18650984188E+03  0.00000000000E+00 0. -1.
      -12    1    3    3    0    0 -0.21929403619E+02  0.22389222653E+02  0.72707016041E+03  0.72774528112E+03  0.00000000000E+00 0.  1.
</event>
<event>
 5   0  0.2392100E+01  0.7812489E+02  0.7957747E-01  0.1332685E+00
        3   -1    0    0  501    0  0.00000000000E+00  0.00000000000E+00  0.26227569954E+02  0.26227569954E+02  0.00000000000E+00 0. -1.
       -4   -1    0    0    0  501  0.00000000000E+00  0.00000000000E+00 -0.58178264286E+02  0.58178264286E+02  0.00000000000E+00 0.  1.
      -24    2    1    2    0    0  0.00000000000E+00  0.00000000000E+00 -0.31950694333E+02  0.84405834240E+02  0.78124887107E+02 0.  0.
       11    1    3    3    0    0  0.34663663065E+02  0.72165110605E+01 -0.33801129722E+02  0.48950627569E+02  0.00000000000E+00 0. -1.
      -12    1    3    3    0    0 -0.34663663065E+02 -0.72165110605E+01  0.18504353889E+01  0.35455206671E+02  0.00000000000E+00 0.  1.
</event>
<event>
 5   0  0.2392100E+01  0.8589166E+02  0.7957747E-01  0.1312457E+00
       -2   -1    0    0    0  501  0.00000000000E+00  0.00000000000E+00  0.11573609585E+02  0.11573609585E+02  0.00000000000E+00 0.  1.
        1   -1    0    0  501    0  0.00000000000E+00  0.00000000000E+00 -0.15935773239E+03  0.15935773239E+03  0.00000000000E+00 0. -1.
      -24    2    1    2    0    0  0.00000000000E+00  0.00000000000E+00 -0.14778412281E+03  0.17093134198E+03  0.85891656847E+02 0.  0.
       11    1    3    3    0    0  0.14821077716E+02 -0.30161470253E+02 -0.12710451433E+03  0.13147218791E+03  0.00000000000E+00 0. -1.
      -12    1    3    3    0    0 -0.14821077716E+02  0.30161470253E+02 -0.20679608480E+02  0.39459154063E+02  0.00000000000E+00 0.  1.
</event>
<event>
 5   0  0.2392100E+01  0.8272110E+02  0.7957747E-01  0.1320411E+00
       -4   -1    0    0    0  501  0.00000000000E+00  0.00000000000E+00  0.11902151155E+02  0.11902151155E+02  0.00000000000E+00 0.  1.
        3   -1    0    0  501    0  0.00000000000E+00  0.00000000000E+00 -0.14372991236E+03  0.14372991236E+03  0.00000000000E+00 0. -1.
      -24    2    1    2    0    0  0.00000000000E+00  0.00000000000E+00 -0.13182776121E+03  0.15563206352E+03  0.82721101117E+02 0.  0.
       11    1    3    3    0    0  0.30069123107E+02 -0.36024632719E+01 -0.11891366297E+03  0.12270936862E+03  0.00000000000E+00 0. -1.
      -12    1    3    3    0    0 -0.30069123107E+02  0.36024632719E+01 -0.12914098235E+02  0.32922694897E+02  0.00000000000E+00 0.  1.
</event>
<event>
 5   0  0.2392100E+01  0.8044284E+02  0.7957747E-01  0.1326379E+00
        1   -1    0    0  501    0  0.00000000000E+00  0.00000000000E+00  0.71915012733E+01  0.71915012733E+01  0.00000000000E+00 0. -1.
       -2   -1    0    0    0  501  0.00000000000E+00  0.00000000000E+00 -0.22495477547E+03  0.22495477547E+03  0.00000000000E+00 0.  1.
      -24    2    1    2    0    0  0.00000000000E+00  0.00000000000E+00 -0.21776327419E+03  0.23214627674E+03  0.80442838195E+02 0.  0.
       11    1    3    3    0    0  0.26334041434E+02 -0.18302192978E+02 -0.38825458324E+02  0.50357404819E+02  0.00000000000E+00 0. -1.
      -12    1    3    3    0    0 -0.26334041434E+02  0.18302192978E+02 -0.17893781587E+03  0.18178887192E+03  0.00000000000E+00 0.  1.
</event>
<event>
 5   0  0.2392100E+01  0.8082440E+02  0.7957747E-01  0.1325364E+00
       -2   -1    0    0    0  501  0.00000000000E+00  0.00000000000E+00  0.11930222754E+02  0.11930222754E+02  0.00000000000E+00 0.  1.
        1   -1    0    0  501    0  0.00000000000E+00  0.00000000000E+00 -0.13689147669E+03  0.13689147669E+03  0.00000000000E+00 0. -1.
      -24    2    1    2    0    0  0.00000000000E+00  0.00000000000E+00 -0.12496125394E+03  0.14882169944E+03  0.80824397555E+02 0.  0.
       11    1    3    3    0    0 -0.37867560572E+02 -0.66116822223E+01 -0.85440004319E+02  0.93689171325E+02  0.00000000000E+00 0. -1.
      -12    1    3    3    0    0  0.37867560572E+02  0.66116822223E+01 -0.39521249616E+02  0.55132528119E+02  0.00000000000E+00 0.  1.
</event>
<event>
 5   0  0.2392100E+01  0.7945048E+02  0.7957747E-01  0.1329049E+00
        1   -1    0    0  501    0  0.00000000000E+00  0.00000000000E+00  0.63505945458E+01  0.63505945458E+01  0.00000000000E+00 0. -1.
       -2   -1    0    0    0  501  0.00000000000E+00  0.00000000000E+00 -0.24849556429E+03  0.24849556429E+03  0.00000000000E+00 0.  1.
      -24    2    1    2    0    0  0.00000000000E+00  0.00000000000E+00 -0.24214496975E+03  0.25484615884E+03  0.79450477035E+02 0.  0.
       11    1    3    3    0    0 -0.56592113415E+01 -0.20778092341E+02 -0.13996961602E+02  0.25684055918E+02  0.00000000000E+00 0. -1.
      -12    1    3    3    0    0  0.56592113415E+01  0.20778092341E+02 -0.22814800815E+03  0.22916210292E+03  0.00000000000E+00 0.  1.
</event>
<event>
 5   0  0.2392100E+01  0.7998483E+02  0.7957747E-01  0.1327606E+00
       -2   -1    0    0    0  501  0.00000000000E+00  0.00000000000E+00  0.75791773695E+02  0.75791773695E+02  0.00000000000E+00 0.  1.
        1   -1    0    0  501    0  0.00000000000E+00  0.00000000000E+00 -0.21102462795E+02  0.21102462795E+02  0.00000000000E+00 0. -1.
      -24    2    1    2    0    0  0.00000000000E+00  0.00000000000E+00  0.54689310900E+02  0.96894236490E+02  0.79984825675E+02 0.  0.
       11    1    3    3    0    0  0.26314205206E+02  0.14335845838E+02  0.59428423117E+02  0.66555926450E+02  0.00000000000E+00 0. -1.
      -12    1    3    3    0    0 -0.26314205206E+02 -0.14335845838E+02 -0.47391122164E+01  0.30338310040E+02  0.00000000000E+00 0.  1.
</event>
<event>
 5   0  0.2392100E+01  0.7999775E+02  0.7957747E-01  0.1327571E+00
       -2   -1    0    0    0  501  0.00000000000E+00  0.00000000000E+00  0.60726351584E+02  0.60726351584E+02  0.00000000000E+00 0.  1.
        1   -1    0    0  501    0  0.00000000000E+00  0.00000000000E+00 -0.26346223643E+02  0.26346223643E+02  0.00000000000E+00 0. -1.
      -24    2    1    2    0    0  0.00000000000E+00  0.00000000000E+00  0.34380127941E+02  0.87072575228E+02  0.79997750965E+02 0.  0.
       11    1    3    3    0    0  0.14654404721E+01  0.16068186107E+02 -0.22646995836E+02  0.27806843419E+02  0.00000000000E+00 0. -1.
      -12    1    3    3    0    0 -0.14654404721E+01 -0.16068186107E+02  0.57027123777E+02  0.59265731809E+02  0.00000000000E+00 0.  1.
</event>
<event>
 5   0  0.2392100E+01  0.7999337E+02  0.7957747E-01  0.1327583E+00
       -2   -1    0    0    0  501  0.00000000000E+00  0.00000000000E+00  0.77438893283E+02  0.77438893283E+02  0.00000000000E+00 0.  1.
        1   -1    0    0  501    0  0.00000000000E+00  0.00000000000E+00 -0.20658028314E+02  0.20658028314E+02  0.00000000000E+00 0. -1.
      -24    2    1    2    0    0  0.00000000000E+00  0.00000000000E+00  0.56780864969E+02  0.98096921597E+02  0.79993370976E+02 0.  0.
       11    1    3    3    0    0  0.25806583848E+02 -0.11941768413E+02 -0.61025374498E+01  0.29083097601E+02  0.00000000000E+00 0. -1.
      -12    1    3    3    0    0 -0.25806583848E+02  0.11941768413E+02  0.62883402419E+02  0.69013823996E+02  0.00000000000E+00 0.  1.
</event>
<event>
 5   0  0.2392100E+01  0.8054445E+02  0.7957747E-01  0.1326108E+00
       -2   -1    0    0    0  501  0.00000000000E+00  0.00000000000E+00  0.71549805712E+01  0.71549805712E+01  0.00000000000E+00 0.  1.
        1   -1    0    0  501    0  0.00000000000E+00  0.00000000000E+00 -0.22667455034E+03  0.22667455034E+03  0.00000000000E+00 0. -1.
      -24    2    1    2    0    0  0.00000000000E+00  0.00000000000E+00 -0.21951956977E+03  0.23382953091E+03  0.80544447448E+02 0.  0.
       11    1    3    3    0    0  0.21163148385E+02 -0.33972694409E+02 -0.12268733484E+03  0.12905117180E+03  0.00000000000E+00 0. -1.
      -12    1    3    3    0    0 -0.21163148385E+02  0.33972694409E+02 -0.96832234936E+02  0.10477835911E+03  0.00000000000E+00 0.  1.
</event>
<event>
 5   0  0.2392100E+01  0.8037380E+02  0.7957747E-01  0.1326563E+00
        1   -1    0    0  501    0  0.00000000000E+00  0.00000000000E+00  0.25152403047E+03  0.25152403047E+03  0.00000000000E+00 0. -1.
       -2   -1    0    0    0  501  0.00000000000E+00  0.00000000000E+00 -0.64208051897E+01  0.64208051897E+01  0.00000000000E+00 0.  1.
      -24    2    1    2    0    0  0.00000000000E+00  0.00000000000E+00  0.24510322528E+03  0.25794483566E+03  0.80373796729E+02 0.  0.
       11    1    3    3    0    0  0.27055665670E+01  0.40062546390E+02  0.12778494817E+03  0.13394521527E+03  0.00000000000E+00 0. -1.
      -12    1    3    3    0    0 -0.27055665670E+01 -0.40062546390E+02  0.11731827710E+03  0.12399962039E+03  0.00000000000E+00 0.  1.
</event>
<event>
 5   0  0.2392100E+01  0.8087948E+02  0.7957747E-01  0.1325218E+00
        1   -1    0    0  501    0  0.00000000000E+00  0.00000000000E+00  0.25633207028E+02  0.25633207028E+02  0.00000000000E+00 0. -1.
       -2   -1    0    0    0  501  0.00000000000E+00  0.00000000000E+00 -0.63798986297E+02  0.63798986297E+02  0.00000000000E+00 0.  1.
      -24    2    1    2    0    0  0.00000000000E+00  0.00000000000E+00 -0.38165779269E+02  0.89432193325E+02  0.80879481302E+02 0.  0.
       11    1    3    3    0    0 -0.16160417743E+02  0.36757327573E+02 -0.13766975323E+02  0.42447495115E+02  0.00000000000E+00 0. -1.
      -12    1    3    3    0    0  0.16160417743E+02 -0.36757327573E+02 -0.24398803946E+02  0.46984698210E+02  0.00000000000E+00 0.  1.
</event>
<event>
 5   0  0.2392100E+01  0.7825393E+02  0.7957747E-01  0.1332327E+00
       -4   -1    0    0    0  501  0.00000000000E+00  0.00000000000E+00  0.24154697197E+03  0.24154697197E+03  0.00000000000E+00 0.  1.
        3   -1    0    0  501    0  0.00000000000E+00  0.00000000000E+00 -0.63379782017E+01  0.63379782017E+01  0.00000000000E+00 0. -1.
      -24    2    1    2    0    0  0.00000000000E+00  0.00000000000E+00  0.23520899377E+03  0.24788495017E+03  0.78253931352E+02 0.  0.
       11    1    3    3    0    0 -0.25846322436E+02  0.18328585319E+02  0.44888710055E+02  0.54945115466E+02  0.00000000000E+00 0. -1.
      -12    1    3    3    0    0  0.25846322436E+02 -0.18328585319E+02  0.19032028371E+03  0.19293983470E+03  0.00000000000E+00 0.  1.
</event>
<event>
 5   0  0.2392100E+01  0.8611193E+02  0.7957747E-01  0.1311919E+00
        1   -1    0    0  501    0  0.00000000000E+00  0.00000000000E+00  0.21455044250E+02  0.21455044250E+02  0.00000000000E+00 0. -1.
       -2   -1    0    0    0  501  0.00000000000E+00  0.00000000000E+00 -0.86404665515E+02  0.86404665515E+02  0.00000000000E+00 0.  1.
      -24    2    1    2    0    0  0.00000000000E+00  0.00000000000E+00 -0.64949621265E+02  0.10785970976E+03  0.86111925353E+02 0.  0.
       11    1    3    3    0    0 -0.32933423966E+02 -0.17688750112E+02 -0.59231209844E+02  0.70041691258E+02  0.00000000000E+00 0. -1.
      -12    1    3    3    0    0  0.32933423966E+02  0.17688750112E+02 -0.57184114212E+01  0.37818018507E+02  0.00000000000E+00 0.  1.
</event>
<event>
 5   0  0.2392100E+01  0.8147192E+02  0.7957747E-01  0.1323656E+00
       -2   -1    0    0    0  501  0.00000000000E+00  0.00000000000E+00  0.13834519855E+02  0.13834519855E+02  0.00000000000E+00 0.  1.
        1   -1    0    0  501    0  0.00000000000E+00  0.00000000000E+00 -0.11994767222E+03  0.11994767222E+03  0.00000000000E+00 0. -1.
      -24    2    1    2    0    0  0.00000000000E+00  0.00000000000E+00 -0.10611315237E+03  0.13378219208E+03  0.81471920388E+02 0.  0.
       11    1    3    3    0    0 -0.24745687354E+02 -0.25602083657E+00 -0.10618959562E+03  0.10903506229E+03  0.00000000000E+00 0. -1.
      -12    1    3    3    0    0  0.24745687354E+02  0.25602083657E+00  0.76443256862E-01  0.24747129790E+02  0.00000000000E+00 0.  1.
</event>
<event>
 5   0  0.2392100E+01  0.7830557E+02  0.7957747E-01  0.1332185E+00
       -4   -1    0    0    0  501  0.00000000000E+00  0.00000000000E+00  0.12152049919E+02  0.12152049919E+02  0.00000000000E+00 0.  1.
        3   -1    0    0  501    0  0.00000000000E+00  0.00000000000E+00 -0.12614666183E+03  0.12614666183E+03  0.00000000000E+00 0. -1.
      -24    2    1    2    0    0  0.00000000000E+00  0.00000000000E+00 -0.11399461191E+03  0.13829871174E+03  0.78305568936E+02 0.  0.
       11    1    3    3    0    0 -0.13586759454E+02 -0.32984476047E+02 -0.85495454941E+02  0.92639346436E+02  0.00000000000E+00 0. -1.
      -12    1    3    3    0    0  0.13586759454E+02  0.32984476047E+02 -0.28499156965E+02  0.45659365308E+02  0.00000000000E+00 0.  1.
</event>
<event>
 5   0  0.2392100E+01  0.8717933E+02  0.7957747E-01  0.1309337E+00
       -2   -1    0    0    0  501  0.00000000000E+00  0.00000000000E+00  0.62267210781E+02  0.62267210781E+02  0.00000000000E+00 0.  1.
        1   -1    0    0  501    0  0.00000000000E+00  0.00000000000E+00 -0.30514594500E+02  0.30514594500E+02  0.00000000000E+00 0. -1.
      -24    2    1    2    0    0  0.00000000000E+00  0.00000000000E+00  0.31752616281E+02  0.92781805282E+02  0.87179325248E+02 0.  0.
       11    1    3    3    0    0 -0.19858602554E+02  0.11699110856E+00 -0.25420433486E+02  0.32257963682E+02  0.00000000000E+00 0. -1.
      -12    1    3    3    0    0  0.19858602554E+02 -0.11699110856E+00  0.57173049767E+02  0.60523841599E+02  0.00000000000E+00 0.  1.
</event>
<event>
 5   0  0.2392100E+01  0.8097989E+02  0.7957747E-01  0.1324952E+00
        3   -1    0    0  501    0  0.00000000000E+00  0.00000000000E+00  0.99554498446E+02  0.99554498446E+02  0.00000000000E+00 0. -1.
       -4   -1    0    0    0  501  0.00000000000E+00  0.00000000000E+00 -0.16467718512E+02  0.16467718512E+02  0.00000000000E+00 0.  1.
      -24    2    1    2    0    0  0.00000000000E+00  0.00000000000E+00  0.83086779935E+02  0.11602221696E+03  0.80979885329E+02 0.  0.
       11    1    3    3    0    0  0.13728763125E+02  0.18415558579E+02  0.89316330103E+02  0.92222657508E+02  0.00000000000E+00 0. -1.
      -12    1    3    3    0    0 -0.13728763125E+02 -0.18415558579E+02 -0.62295501687E+01  0.23799559450E+02  0.00000000000E+00 0.  1.
</event>
<event>
 5   0  0.2392100E+01  0.5919369E+02  0.7957747E-01  0.1395663E+00
       -2   -1    0    0    0  501  0.00000000000E+00  0.00000000000E+00  0.31065143198E+01  0.31065143198E+01  0.00000000000E+00 0.  1.
        1   -1    0    0  501    0  0.00000000000E+00  0.00000000000E+00 -0.28197944733E+03  0.28197944733E+03  0.00000000000E+00 0. -1.
      -24    2    1    2    0    0  0.00000000000E+00  0.00000000000E+00 -0.27887293301E+03  0.28508596165E+03  0.59193688549E+02 0.  0.
       11    1    3    3    0    0  0.91288838812E+01  0.27219261601E+02 -0.10479077950E+03  0.10865234554E+03  0.00000000000E+00 0. -1.
      -12    1    3    3    0    0 -0.91288838812E+01 -0.27219261601E+02 -0.17408215351E+03  0.17643361611E+03  0.00000000000E+00 0.  1.
</event>
<event>
 5   0  0.2392100E+01  0.8190940E+02  0.7957747E-01  0.1322512E+00
        3   -1    0    0  501    0  0.00000000000E+00  0.00000000000E+00  0.17851617453E+02  0.17851617453E+02  0.00000000000E+00 0. -1.
       -4   -1    0    0    0  501  0.00000000000E+00  0.00000000000E+00 -0.93957167590E+02  0.93957167590E+02  0.00000000000E+00 0.  1.
      -24    2    1    2    0    0  0.00000000000E+00  0.00000000000E+00 -0.76105550137E+02  0.11180878504E+03  0.81909399041E+02 0.  0.
       11    1    3    3    0    0  0.54670996569E+01  0.32085533535E+02 -0.41209530481E+01  0.32807817588E+02  0.00000000000E+00 0. -1.
      -12    1    3    3    0    0 -0.54670996569E+01 -0.32085533535E+02 -0.71984597088E+02  0.79000967455E+02  0.00000000000E+00 0.  1.
</event>
<event>
 5   0  0.2392100E+01  0.8018244E+02  0.7957747E-01  0.1327075E+00
        1   -1    0    0  501    0  0.00000000000E+00  0.00000000000E+00  0.12089952732E+03  0.12089952732E+03  0.00000000000E+00 0. -1.
       -2   -1    0    0    0  501  0.00000000000E+00  0.00000000000E+00 -0.13294559274E+02  0.13294559274E+02  0.00000000000E+00 0.  1.
      -24    2    1    2    0    0  0.00000000000E+00  0.00000000000E+00  0.10760496804E+03  0.13419408659E+03  0.80182440275E+02 0.  0.
       11    1    3    3    0    0 -0.17384391496E+02  0.23056638473E+02  0.10034809484E+03  0.10442014070E+03  0.00000000000E+00 0. -1.
      -12    1    3    3    0    0  0.17384391496E+02 -0.23056638473E+02  0.72568732030E+01  0.29773945893E+02  0.00000000000E+00 0.  1.
</event>
<event>
 5   0  0.2392100E+01  0.8005093E+02  0.7957747E-01  0.1327428E+00
        1   -1    0    0  501    0  0.00000000000E+00  0.00000000000E+00  0.21478360495E+03  0.21478360495E+03  0.00000000000E+00 0. -1.
       -2   -1    0    0    0  501  0.00000000000E+00  0.00000000000E+00 -0.74588461013E+01  0.74588461013E+01  0.00000000000E+00 0.  1.
      -24    2    1    2    0    0  0.00000000000E+00  0.00000000000E+00  0.20732475885E+03  0.22224245105E+03  0.80050930148E+02 0.  0.
       11    1    3    3    0    0  0.23182720235E+02 -0.26848842659E+02  0.15513485196E+03  0.15913868531E+03  0.00000000000E+00 0. -1.
      -12    1    3    3    0    0 -0.23182720235E+02  0.26848842659E+02  0.52189906888E+02  0.63103765740E+02  0.00000000000E+00 0.  1.
</event>
<event>
 5   0  0.2392100E+01  0.8048728E+02  0.7957747E-01  0.1326260E+00
        1   -1    0    0  501    0  0.00000000000E+00  0.00000000000E+00  0.22105360278E+02  0.22105360278E+02  0.00000000000E+00 0. -1.
       -2   -1    0    0    0  501  0.00000000000E+00  0.00000000000E+00 -0.73265056715E+02  0.73265056715E+02  0.00000000000E+00 0.  1.
      -24    2    1    2    0    0  0.00000000000E+00  0.00000000000E+00 -0.51159696437E+02  0.95370416993E+02  0.80487277863E+02 0.  0.
       11    1    3    3    0    0 -0.29048500674E+01 -0.31901756124E+02  0.32841610214E+01  0.32201644544E+02  0.00000000000E+00 0. -1.
      -12    1    3    3    0    0  0.29048500674E+01  0.31901756124E+02 -0.54443857459E+02  0.63168772449E+02  0.00000000000E+00 0.  1.
</event>
<event>
 4   0  0.2392100E+01  0.1124697E+03  0.7957747E-01  0.1258138E+00
        3   -1    0    0  501    0  0.00000000000E+00  0.00000000000E+00  0.57461731812E+03  0.57461731812E+03  0.00000000000E+00 0. -1.
       -4   -1    0    0    0  501  0.00000000000E+00  0.00000000000E+00 -0.55034157256E+01  0.55034157256E+01  0.00000000000E+00 0.  1.
       11    1    1    2    0    0  0.52684204790E+02  0.18455612068E+02  0.24952685441E+03  0.25569490828E+03  0.00000000000E+00 0. -1.
      -12    1    1    2    0    0 -0.52684204790E+02 -0.18455612068E+02  0.31958704798E+03  0.32442582556E+03  0.00000000000E+00 0.  1.
</event>
<event>
 5   0  0.2392100E+01  0.7746296E+02  0.7957747E-01  0.1334531E+00
       -4   -1    0    0    0  501  0.00000000000E+00  0.00000000000E+00  0.18354280822E+02  0.18354280822E+02  0.00000000000E+00 0.  1.
        3   -1    0    0  501    0  0.00000000000E+00  0.00000000000E+00 -0.81731761120E+02  0.81731761120E+02  0.00000000000E+00 0. -1.
      -24    2    1    2    0    0  0.00000000000E+00  0.00000000000E+00 -0.63377480299E+02  0.10008604194E+03  0.77462963941E+02 0.  0.
       11    1    3    3    0    0 -0.73147097837E+01  0.27610002803E+02 -0.65487906937E+02  0.71445665992E+02  0.00000000000E+00 0. -1.
      -12    1    3    3    0    0  0.73147097837E+01 -0.27610002803E+02  0.21104266384E+01  0.28640375950E+02  0.00000000000E+00 0.  1.
</event>
<event>
 5   0  0.2392100E+01  0.8061075E+02  0.7957747E-01  0.1325931E+00
       -2   -1    0    0    0  501  0.00000000000E+00  0.00000000000E+00  0.30173947493E+03  0.30173947493E+03  0.00000000000E+00 0.  1.
        1   -1    0    0  501    0  0.00000000000E+00  0.00000000000E+00 -0.53838608332E+01  0.53838608332E+01  0.00000000000E+00 0. -1.
      -24    2    1    2    0    0  0.00000000000E+00  0.00000000000E+00  0.29635561410E+03  0.30712333576E+03  0.80610752159E+02 0.  0.
       11    1    3    3    0    0 -0.13339846531E+02 -0.12764411956E+01  0.33522758000E+01  0.13813709156E+02  0.00000000000E+00 0. -1.
      -12    1    3    3    0    0  0.13339846531E+02  0.12764411956E+01  0.29300333830E+03  0.29330962661E+03  0.00000000000E+00 0.  1.
</event>
<event>
 5   0  0.2392100E+01  0.8000736E+02  0.7957747E-01  0.1327545E+00
       -2   -1    0    0    0  501  0.00000000000E+00  0.00000000000E+00  0.49348692668E+02  0.49348692668E+02  0.00000000000E+00 0.  1.
        1   -1    0    0  501    0  0.00000000000E+00  0.00000000000E+00 -0.32428305629E+02  0.32428305629E+02  0.00000000000E+00 0. -1.
      -24    2    1    2    0    0  0.00000000000E+00  0.00000000000E+00  0.16920387039E+02  0.81776998297E+02  0.80007361867E+02 0.  0.
       11    1    3    3    0    0  0.33505715597E+02  0.10949530480E+02 -0.10872962076E+02  0.36888297598E+02  0.00000000000E+00 0. -1.
      -12    1    3    3    0    0 -0.33505715597E+02 -0.10949530480E+02  0.27793349115E+02  0.44888700698E+02  0.00000000000E+00 0.  1.
</event>
<event>
 5   0  0.2392100E+01  0.8087904E+02  0.7957747E-01  0.1325219E+00
       -4   -1    0    0    0  501  0.00000000000E+00  0.00000000000E+00  0.13404676434E+02  0.13404676434E+02  0.00000000000E+00 0.  1.
        3   -1    0    0  501    0  0.00000000000E+00  0.00000000000E+00 -0.12199883557E+03  0.12199883557E+03  0.00000000000E+00 0. -1.
      -24    2    1    2    0    0  0.00000000000E+00  0.00000000000E+00 -0.10859415914E+03  0.13540351201E+03  0.80879043422E+02 0.  0.
       11    1    3    3    0    0  0.91322049099E+01  0.29261136107E+02 -0.98456010695E+02  0.10311739569E+03  0.00000000000E+00 0. -1.
      -12    1    3    3    0    0 -0.91322049099E+01 -0.29261136107E+02 -0.10138148446E+02  0.32286116315E+02  0.00000000000E+00 0.  1.
</event>
<event>
 5   0  0.2392100E+01  0.7995370E+02  0.7957747E-01  0.1327689E+00
       -4   -1    0    0    0  501  0.00000000000E+00  0.00000000000E+00  0.26575445925E+02  0.26575445925E+02  0.00000000000E+00 0.  1.
        3   -1    0    0  501    0  0.00000000000E+00  0.00000000000E+00 -0.60136275934E+02  0.60136275934E+02  0.00000000000E+00 0. -1.
      -24    2    1    2    0    0  0.00000000000E+00  0.00000000000E+00 -0.33560830010E+02  0.86711721859E+02  0.79953695330E+02 0.  0.
       11    1    3    3    0    0  0.23633891375E+02  0.20892331850E+02 -0.43414219809E+02  0.53664185760E+02  0.00000000000E+00 0. -1.
      -12    1    3    3    0    0 -0.23633891375E+02 -0.20892331850E+02  0.98533897998E+01  0.33047536099E+02  0.00000000000E+00 0.  1.
</event>
<event>
 5   0  0.2392100E+01  0.8146854E+02  0.7957747E-01  0.1323664E+00
        1   -1    0    0  501    0  0.00000000000E+00  0.00000000000E+00  0.25598907920E+02  0.25598907920E+02  0.00000000000E+00 0. -1.
       -2   -1    0    0    0  501  0.00000000000E+00  0.00000000000E+00 -0.64818416341E+02  0.64818416341E+02  0.00000000000E+00 0.  1.
      -24    2    1    2    0    0  0.00000000000E+00  0.00000000000E+00 -0.39219508422E+02  0.90417324261E+02  0.81468538011E+02 0.  0.
       11    1    3    3    0    0  0.88561885014E+01 -0.80726905234E+01  0.23598381248E+02  0.26466658357E+02  0.00000000000E+00 0. -1.
      -12    1    3    3    0    0 -0.88561885014E+01  0.80726905234E+01 -0.62817889669E+02  0.63950665904E+02  0.00000000000E+00 0.  1.
</event>
<event>
 5   0  0.2392100E+01  0.8087482E+02  0.7957747E-01  0.1325230E+00
       -2   -1    0    0    0  501  0.00000000000E+00  0.00000000000E+00  0.17540166067E+02  0.17540166067E+02  0.00000000000E+00 0.  1.
        1   -1    0    0  501    0  0.00000000000E+00  0.00000000000E+00 -0.93225111805E+02  0.93225111805E+02  0.00000000000E+00 0. -1.
      -24    2    1    2    0    0  0.00000000000E+00  0.00000000000E+00 -0.75684945738E+02  0.11076527787E+03  0.80874815429E+02 0.  0.
       11    1    3    3    0    0 -0.27195742748E+02  0.26551784149E+02 -0.56749665007E+02  0.68301757982E+02  0.00000000000E+00 0. -1.
      -12    1    3    3    0    0  0.27195742748E+02 -0.26551784149E+02 -0.18935280731E+02  0.42463519890E+02  0.00000000000E+00 0.  1.
</event>
<event>
 5   0  0.2392100E+01  0.8232212E+02  0.7957747E-01  0.1321440E+00
       -2   -1    0    0    0  501  0.00000000000E+00  0.00000000000E+00  0.18692037857E+02  0.18692037857E+02  0.00000000000E+00 0.  1.
        1   -1    0    0  501    0  0.00000000000E+00  0.00000000000E+00 -0.90639279003E+02  0.90639279003E+02  0.00000000000E+00 0. -1.
      -24    2    1    2    0    0  0.00000000000E+00  0.00000000000E+00 -0.71947241146E+02  0.10933131686E+03  0.82322119371E+02 0.  0.
       11    1    3    3    0    0 -0.11620086665E+02 -0.13777362092E+02 -0.85120022223E+02  0.87007242823E+02  0.00000000000E+00 0. -1.
      -12    1    3    3    0    0  0.11620086665E+02  0.13777362092E+02  0.13172781077E+02  0.22324074037E+02  0.00000000000E+00 0.  1.
</event>
<event>
 5   0  0.2392100E+01  0.7952024E+02  0.7957747E-01  0.1328860E+00
       -4   -1    0    0    0  501  0.00000000000E+00  0.00000000000E+00  0.38392978872E+02  0.38392978872E+02  0.00000000000E+00 0.  1.
        3   -1    0    0  501    0  0.00000000000E+00  0.00000000000E+00 -0.41175943377E+02  0.41175943377E+02  0.00000000000E+00 0. -1.
      -24    2    1    2    0    0  0.00000000000E+00  0.00000000000E+00 -0.27829645051E+01  0.79568922249E+02  0.79520239540E+02 0.  0.
       11    1    3    3    0    0 -0.19969820891E+02 -0.15421339111E+02 -0.32139038061E+02  0.40859872906E+02  0.00000000000E+00 0. -1.
      -12    1    3    3    0    0  0.19969820891E+02  0.15421339111E+02  0.29356073556E+02  0.38709049343E+02  0.00000000000E+00 0.  1.
</event>
<event>
 5   0  0.2392100E+01  0.7822254E+02  0.7957747E-01  0.1332414E+00
       -2   -1    0    0    0  501  0.00000000000E+00  0.00000000000E+00  0.49929916887E+01  0.49929916887E+01  0.00000000000E+00 0.  1.
        1   -1    0    0  501    0  0.00000000000E+00  0.00000000000E+00 -0.30636769093E+03  0.30636769093E+03  0.00000000000E+00 0. -1.
      -24    2    1    2    0    0  0.00000000000E+00  0.00000000000E+00 -0.30137469925E+03  0.31136068262E+03  0.78222537277E+02 0.  0.
       11    1    3    3    0    0  0.98585762047E+01 -0.34821399450E+02 -0.20972289097E+03  0.21282249030E+03  0.00000000000E+00 0. -1.
      -12    1    3    3    0    0 -0.98585762047E+01  0.34821399450E+02 -0.91651808280E+02  0.98538192318E+02  0.00000000000E+00 0.  1.
</event>
<event>
 5   0  0.2392100E+01  0.8371999E+02  0.7957747E-01  0.1317862E+00
       -2   -1    0    0    0  501  0.00000000000E+00  0.00000000000E+00  0.43367264194E+02  0.43367264194E+02  0.00000000000E+00 0.  1.
        1   -1    0    0  501    0  0.00000000000E+00  0.00000000000E+00 -0.40405115503E+02  0.40405115503E+02  0.00000000000E+00 0. -1.
      -24    2    1    2    0    0  0.00000000000E+00  0.00000000000E+00  0.29621486911E+01  0.83772379697E+02  0.83719993283E+02 0.  0.
       11    1    3    3    0    0 -0.29803951532E+02  0.29158431536E+02  0.51941458378E+01  0.42017482166E+02  0.00000000000E+00 0. -1.
      -12    1    3    3    0    0  0.29803951532E+02 -0.29158431536E+02 -0.22319971467E+01  0.41754897531E+02  0.00000000000E+00 0.  1.
</event>
<event>
 5   0  0.2392100E+01  0.8127339E+02  0.7957747E-01  0.1324177E+00
        1   -1    0    0  501    0  0.00000000000E+00  0.00000000000E+00  0.98599851359E+01  0.98599851359E+01  0.00000000000E+00 0. -1.
       -2   -1    0    0    0  501  0.00000000000E+00  0.00000000000E+00 -0.16747904743E+03  0.16747904743E+03  0.00000000000E+00 0.  1.
      -24    2    1    2    0    0  0.00000000000E+00  0.00000000000E+00 -0.15761906230E+03  0.17733903257E+03  0.81273388468E+02 0.  0.
       11    1    3    3    0    0 -0.26644639380E+02  0.23798408589E+02 -0.36552918387E+02  0.51111807850E+02  0.00000000000E+00 0. -1.
      -12    1    3    3    0    0  0.26644639380E+02 -0.23798408589E+02 -0.12106614391E+03  0.12622722472E+03  0.00000000000E+00 0.  1.
</event>
<event>
 5   0  0.2392100E+01  0.8004257E+02  0.7957747E-01  0.1327450E+00
       -2   -1    0    0    0  501  0.00000000000E+00  0.00000000000E+00  0.64755778857E+01  0.64755778857E+01  0.00000000000E+00 0.  1.
        1   -1    0    0  501    0  0.00000000000E+00  0.00000000000E+00 -0.24734524020E+03  0.24734524020E+03  0.00000000000E+00 0. -1.
      -24    2    1    2    0    0  0.00000000000E+00  0.00000000000E+00 -0.24086966231E+03  0.25382081808E+03  0.80042572861E+02 0.  0.
       11    1    3    3    0    0 -0.27551647922E+02 -0.18869179105E+02 -0.19038298402E+03  0.19328947159E+03  0.00000000000E+00 0. -1.
      -12    1    3    3    0    0  0.27551647922E+02  0.18869179105E+02 -0.50486678292E+02  0.60531346493E+02  0.00000000000E+00 0.  1.
</event>
<event>
 5   0  0.2392100E+01  0.7856418E+02  0.7957747E-01  0.1331471E+00
       -2   -1    0    0    0  501  0.00000000000E+00  0.00000000000E+00  0.49087925445E+02  0.49087925445E+02  0.00000000000E+00 0.  1.
        1   -1    0    0  501    0  0.00000000000E+00  0.00000000000E+00 -0.31435070994E+02  0.31435070994E+02  0.00000000000E+00 0. -1.
      -24    2    1    2    0    0  0.00000000000E+00  0.00000000000E+00  0.17652854451E+02  0.80522996439E+02  0.78564175584E+02 0.  0.
       11    1    3    3    0    0 -0.10565880642E+02 -0.23927377967E+02 -0.21211712633E+02  0.33676312194E+02  0.00000000000E+00 0. -1.
      -12    1    3    3    0    0  0.10565880642E+02  0.23927377967E+02  0.38864567084E+02  0.46846684245E+02  0.00000000000E+00 0.  1.
</event>
<event>
 5   0  0.2392100E+01  0.8076869E+02  0.7957747E-01  0.1325512E+00
       -2   -1    0    0    0  501  0.00000000000E+00  0.00000000000E+00  0.45999511735E+01  0.45999511735E+01  0.00000000000E+00 0.  1.
        1   -1    0    0  501    0  0.00000000000E+00  0.00000000000E+00 -0.35454618345E+03  0.35454618345E+03  0.00000000000E+00 0. -1.
      -24    2    1    2    0    0  0.00000000000E+00  0.00000000000E+00 -0.34994623228E+03  0.35914613463E+03  0.80768685334E+02 0.  0.
       11    1    3    3    0    0 -0.34282027149E+02 -0.94221010931E+01 -0.89804536565E+02  0.96586169621E+02  0.00000000000E+00 0. -1.
      -12    1    3    3    0    0  0.34282027149E+02  0.94221010931E+01 -0.26014169571E+03  0.26255996500E+03  0.00000000000E+00 0.  1.
</event>
<event>
 5   0  0.2392100E+01  0.8217699E+02  0.7957747E-01  0.1321816E+00
       -4   -1    0    0    0  501  0.00000000000E+00  0.00000000000E+00  0.53976480463E+02  0.53976480463E+02  0.00000000000E+00 0.  1.
        3   -1    0    0  501    0  0.00000000000E+00  0.00000000000E+00 -0.31277775322E+02  0.31277775322E+02  0.00000000000E+00 0. -1.
      -24    2    1    2    0    0  0.00000000000E+00  0.00000000000E+00  0.22698705141E+02  0.85254255785E+02  0.82176985309E+02 0.  0.
       11    1    3    3    0    0  0.10617810978E+01 -0.14316052890E+02 -0.28591509360E+02  0.31992986058E+02  0.00000000000E+00 0. -1.
      -12    1    3    3    0    0 -0.10617810978E+01  0.14316052890E+02  0.51290214501E+02  0.53261269727E+02  0.00000000000E+00 0.  1.
</event>
<event>
 5   0  0.2392100E+01  0.8085832E+02  0.7957747E-01  0.1325274E+00
        1   -1    0    0  501    0  0.00000000000E+00  0.00000000000E+00  0.42361677890E+02  0.42361677890E+02  0.00000000000E+00 0. -1.
       -2   -1    0    0    0  501  0.00000000000E+00  0.00000000000E+00 -0.38584805263E+02  0.38584805263E+02  0.00000000000E+00 0.  1.
      -24    2    1    2    0    0  0.00000000000E+00  0.00000000000E+00  0.37768726263E+01  0.80946483153E+02  0.80858322812E+02 0.  0.
       11    1    3    3    0    0  0.31649019034E+02  0.24591877745E+02  0.71948037733E+01  0.40720830764E+02  0.00000000000E+00 0. -1.
      -12    1    3    3    0    0 -0.31649019034E+02 -0.24591877745E+02 -0.34179311470E+01  0.40225652389E+02  0.00000000000E+00 0.  1.
</event>
<event>
 5   0  0.2392100E+01  0.7866401E+02  0.7957747E-01  0.1331196E+00
        1   -1    0    0  501    0  0.00000000000E+00  0.00000000000E+00  0.16746174923E+01  0.16746174923E+01  0.00000000000E+00 0. -1.
       -2   -1    0    0    0  501  0.00000000000E+00  0.00000000000E+00 -0.92379689072E+03  0.92379689072E+03  0.00000000000E+00 0.  1.
      -24    2    1    2    0    0  0.00000000000E+00  0.00000000000E+00 -0.92212227322E+03  0.92547150821E+03  0.78664005301E+02 0.  0.
       11    1    3    3    0    0  0.22785529432E+02  0.23994243540E+01 -0.84940578027E+02  0.87976356962E+02  0.00000000000E+00 0. -1.
      -12    1    3    3    0    0 -0.22785529432E+02 -0.23994243540E+01 -0.83718169520E+03  0.83749515125E+03  0.00000000000E+00 0.  1.
</event>
<event>
 5   0  0.2392100E+01  0.7776178E+02  0.7957747E-01  0.1333695E+00
        3   -1    0    0  501    0  0.00000000000E+00  0.00000000000E+00  0.90554480997E+02  0.90554480997E+02  0.00000000000E+00 0. -1.
       -4   -1    0    0    0  501  0.00000000000E+00  0.00000000000E+00 -0.16694076468E+02  0.16694076468E+02  0.00000000000E+00 0.  1.
      -24    2    1    2    0    0  0.00000000000E+00  0.00000000000E+00  0.73860404529E+02  0.10724855747E+03  0.77761775451E+02 0.  0.
       11    1    3    3    0    0  0.55991272514E+01 -0.38149061611E+02  0.30031158072E+02  0.48873014875E+02  0.00000000000E+00 0. -1.
      -12    1    3    3    0    0 -0.55991272514E+01  0.38149061611E+02  0.43829246456E+02  0.58375542590E+02  0.00000000000E+00 0.  1.
</event>
<event>
 5   0  0.2392100E+01  0.7831587E+02  0.7957747E-01  0.1332156E+00
       -4   -1    0    0    0  501  0.00000000000E+00  0.00000000000E+00  0.23510148445E+03  0.23510148445E+03  0.00000000000E+00 0.  1.
        3   -1    0    0  501    0  0.00000000000E+00  0.00000000000E+00 -0.65220517014E+01  0.65220517014E+01  0.00000000000E+00 0. -1.
      -24    2    1    2    0    0  0.00000000000E+00  0.00000000000E+00  0.22857943275E+03  0.24162353615E+03  0.78315874167E+02 0.  0.
       11    1    3    3    0    0 -0.21245578317E+02 -0.15813614066E+02  0.25303088445E+02  0.36629104175E+02  0.00000000000E+00 0. -1.
      -12    1    3    3    0    0  0.21245578317E+02  0.15813614066E+02  0.20327634430E+03  0.20499443197E+03  0.00000000000E+00 0.  1.
</event>
<event>
 5   0  0.2392100E+01  0.7460054E+02  0.7957747E-01  0.1342764E+00
        3   -1    0    0  501    0  0.00000000000E+00  0.00000000000E+00  0.26675950593E+02  0.26675950593E+02  0.00000000000E+00 0. -1.
       -4   -1    0    0    0  501  0.00000000000E+00  0.00000000000E+00 -0.52155971294E+02  0.52155971294E+02  0.00000000000E+00 0.  1.
      -24    2    1    2    0    0  0.00000000000E+00  0.00000000000E+00 -0.25480020700E+02  0.78831921887E+02  0.74600539231E+02 0.  0.
       11    1    3    3    0    0 -0.15390423901E+02 -0.19990965631E+01  0.23102114957E+02  0.27831084248E+02  0.00000000000E+00 0. -1.
      -12    1    3    3    0    0  0.15390423901E+02  0.19990965631E+01 -0.48582135657E+02  0.51000837640E+02  0.00000000000E+00 0.  1.
</event>
<event>
 5   0  0.2392100E+01  0.8051429E+02  0.7957747E-01  0.1326188E+00
        3   -1    0    0  501    0  0.00000000000E+00  0.00000000000E+00  0.21445558593E+02  0.21445558593E+02  0.00000000000E+00 0. -1.
       -4   -1    0    0    0  501  0.00000000000E+00  0.00000000000E+00 -0.75569861592E+02  0.75569861592E+02  0.00000000000E+00 0.  1.
      -24    2    1    2    0    0  0.00000000000E+00  0.00000000000E+00 -0.54124302999E+02  0.97015420185E+02  0.80514294250E+02 0.  0.
       11    1    3    3    0    0 -0.36003634824E+02 -0.17624374700E+02 -0.22592857044E+02  0.46014318353E+02  0.00000000000E+00 0. -1.
      -12    1    3    3    0    0  0.36003634824E+02  0.17624374700E+02 -0.31531445956E+02  0.51001101832E+02  0.00000000000E+00 0.  1.
</event>
<event>
 5   0  0.2392100E+01  0.7985953E+02  0.7957747E-01  0.1327943E+00
       -2   -1    0    0    0  501  0.00000000000E+00  0.00000000000E+00  0.21121302782E+02  0.21121302782E+02  0.00000000000E+00 0.  1.
        1   -1    0    0  501    0  0.00000000000E+00  0.00000000000E+00 -0.75487119902E+02  0.75487119902E+02  0.00000000000E+00 0. -1.
      -24    2    1    2    0    0  0.00000000000E+00  0.00000000000E+00 -0.54365817120E+02  0.96608422685E+02  0.79859534575E+02 0.  0.
       11    1    3    3    0    0  0.75326535303E+01  0.33300244861E+02 -0.52231584962E+02  0.62400205486E+02  0.00000000000E+00 0. -1.
      -12    1    3    3    0    0 -0.75326535303E+01 -0.33300244861E+02 -0.21342321576E+01  0.34208217199E+02  0.00000000000E+00 0.  1.
</event>
<event>
 5   0  0.2392100E+01  0.8051966E+02  0.7957747E-01  0.1326174E+00
       -2   -1    0    0    0  501  0.00000000000E+00  0.00000000000E+00  0.72754777806E+03  0.72754777806E+03  0.00000000000E+00 0.  1.
        1   -1    0    0  501    0  0.00000000000E+00  0.00000000000E+00 -0.22278313155E+01  0.22278313155E+01  0.00000000000E+00 0. -1.
      -24    2    1    2    0    0  0.00000000000E+00  0.00000000000E+00  0.72531994675E+03  0.72977560938E+03  0.80519655326E+02 0.  0.
       11    1    3    3    0    0 -0.18292432139E+02  0.26774031655E+02  0.14639157133E+03  0.14993983461E+03  0.00000000000E+00 0. -1.
      -12    1    3    3    0    0  0.18292432139E+02 -0.26774031655E+02  0.57892837541E+03  0.57983577477E+03  0.00000000000E+00 0.  1.
</event>
<event>
 5   0  0.2392100E+01  0.8129873E+02  0.7957747E-01  0.1324111E+00
       -2   -1    0    0    0  501  0.00000000000E+00  0.00000000000E+00  0.38849567034E+03  0.38849567034E+03  0.00000000000E+00 0.  1.
        1   -1    0    0  501    0  0.00000000000E+00  0.00000000000E+00 -0.42532545802E+01  0.42532545802E+01  0.00000000000E+00 0. -1.
      -24    2    1    2    0    0  0.00000000000E+00  0.00000000000E+00  0.38424241576E+03  0.39274892492E+03  0.81298732813E+02 0.  0.
       11    1    3    3    0    0 -0.51436569369E+01 -0.11039073457E+02  0.47673041067E+01  0.13078437901E+02  0.00000000000E+00 0. -1.
      -12    1    3    3    0    0  0.51436569369E+01  0.11039073457E+02  0.37947511165E+03  0.37967048702E+03  0.00000000000E+00 0.  1.
</event>
<event>
 5   0  0.2392100E+01  0.7940681E+02  0.7957747E-01  0.1329167E+00
       -4   -1    0    0    0  501  0.00000000000E+00  0.00000000000E+00  0.18619351435E+03  0.18619351435E+03  0.00000000000E+00 0.  1.
        3   -1    0    0  501    0  0.00000000000E+00  0.00000000000E+00 -0.84662483698E+01  0.84662483698E+01  0.00000000000E+00 0. -1.
      -24    2    1    2    0    0  0.00000000000E+00  0.00000000000E+00  0.17772726598E+03  0.19465976272E+03  0.79406814251E+02 0.  0.
       11    1    3    3    0    0 -0.12302025344E+02 -0.13503297603E+02  0.24467968628E+01  0.18430021394E+02  0.00000000000E+00 0. -1.
      -12    1    3    3    0    0  0.12302025344E+02  0.13503297603E+02  0.17528046912E+03  0.17622974133E+03  0.00000000000E+00 0.  1.
</event>
<event>
 5   0  0.2392100E+01  0.8023099E+02  0.7957747E-01  0.1326945E+00
        1   -1    0    0  501    0  0.00000000000E+00  0.00000000000E+00  0.10439843364E+03  0.10439843364E+03  0.00000000000E+00 0. -1.
       -2   -1    0    0    0  501  0.00000000000E+00  0.00000000000E+00 -0.15414532043E+02  0.15414532043E+02  0.00000000000E+00 0.  1.
      -24    2    1    2    0    0  0.00000000000E+00  0.00000000000E+00  0.88983901598E+02  0.11981296568E+03  0.80230991532E+02 0.  0.
       11    1    3    3    0    0 -0.20552065098E+02  0.21735212744E+02  0.84407895125E+02  0.89551658903E+02  0.00000000000E+00 0. -1.
      -12    1    3    3    0    0  0.20552065098E+02 -0.21735212744E+02  0.45760064735E+01  0.30261306781E+02  0.00000000000E+00 0.  1.
</event>
<event>
 5   0  0.2392100E+01  0.7727704E+02  0.7957747E-01  0.1335054E+00
        3   -1    0    0  501    0  0.00000000000E+00  0.00000000000E+00  0.27856801057E+02  0.27856801057E+02  0.00000000000E+00 0. -1.
       -4   -1    0    0    0  501  0.00000000000E+00  0.00000000000E+00 -0.53593208562E+02  0.53593208562E+02  0.00000000000E+00 0.  1.
      -24    2    1    2    0    0  0.00000000000E+00  0.00000000000E+00 -0.25736407506E+02  0.81450009619E+02  0.77277043135E+02 0.  0.
       11    1    3    3    0    0 -0.30121626855E+02 -0.66355684096E+01  0.11660626330E+02  0.32974435232E+02  0.00000000000E+00 0. -1.
      -12    1    3    3    0    0  0.30121626855E+02  0.66355684096E+01 -0.37397033835E+02  0.48475574387E+02  0.00000000000E+00 0.  1.
</event>
<event>
 5   0  0.2392100E+01  0.8488542E+02  0.7957747E-01  0.1314939E+00
       -4   -1    0    0    0  501  0.00000000000E+00  0.00000000000E+00  0.13550409428E+03  0.13550409428E+03  0.00000000000E+00 0.  1.
        3   -1    0    0  501    0  0.00000000000E+00  0.00000000000E+00 -0.13293942373E+02  0.13293942373E+02  0.00000000000E+00 0. -1.
      -24    2    1    2    0    0  0.00000000000E+00  0.00000000000E+00  0.12221015191E+03  0.14879803666E+03  0.84885419730E+02 0.  0.
       11    1    3    3    0    0  0.42285502892E+01  0.20361987814E+02 -0.37507153026E+01  0.21131943843E+02  0.00000000000E+00 0. -1.
      -12    1    3    3    0    0 -0.42285502892E+01 -0.20361987814E+02  0.12596086721E+03  0.12766609281E+03  0.00000000000E+00 0.  1.
</event>
<event>
 5   0  0.2392100E+01  0.8059201E+02  0.7957747E-01  0.1325981E+00
        1   -1    0    0  501    0  0.00000000000E+00  0.00000000000E+00  0.98770647220E+01  0.98770647220E+01  0.00000000000E+00 0. -1.
       -2   -1    0    0    0  501  0.00000000000E+00  0.00000000000E+00 -0.16439784074E+03  0.16439784074E+03  0.00000000000E+00 0.  1.
      -24    2    1    2    0    0  0.00000000000E+00  0.00000000000E+00 -0.15452077601E+03  0.17427490546E+03  0.80592012336E+02 0.  0.
       11    1    3    3    0    0  0.32888792839E+02 -0.10058893728E+02 -0.31853698727E+02  0.46877629633E+02  0.00000000000E+00 0. -1.
      -12    1    3    3    0    0 -0.32888792839E+02  0.10058893728E+02 -0.12266707729E+03  0.12739727582E+03  0.00000000000E+00 0.  1.
</event>
<event>
 5   0  0.2392100E+01  0.8099448E+02  0.7957747E-01  0.1324913E+00
       -2   -1    0    0    0  501  0.00000000000E+00  0.00000000000E+00  0.15291512776E+03  0.15291512776E+03  0.00000000000E+00 0.  1.
        1   -1    0    0  501    0  0.00000000000E+00  0.00000000000E+00 -0.10725076302E+02  0.10725076302E+02  0.00000000000E+00 0. -1.
      -24    2    1    2    0    0  0.00000000000E+00  0.00000000000E+00  0.14219005146E+03  0.16364020407E+03  0.80994479145E+02 0.  0.
       11    1    3    3    0    0 -0.11089436235E+02 -0.34637119975E+02  0.35104861988E+02  0.50547571765E+02  0.00000000000E+00 0. -1.
      -12    1    3    3    0    0  0.11089436235E+02  0.34637119975E+02  0.10708518947E+03  0.11309263230E+03  0.00000000000E+00 0.  1.
</event>
<event>
 5   0  0.2392100E+01  0.8482128E+02  0.7957747E-01  0.1315098E+00
        1   -1    0    0  501    0  0.00000000000E+00  0.00000000000E+00  0.37675988579E+01  0.37675988579E+01  0.00000000000E+00 0. -1.
       -2   -1    0    0    0  501  0.00000000000E+00  0.00000000000E+00 -0.47740286712E+03  0.47740286712E+03  0.00000000000E+00 0.  1.
      -24    2    1    2    0    0  0.00000000000E+00  0.00000000000E+00 -0.47363526826E+03  0.48117046598E+03  0.84821282635E+02 0.  0.
       11    1    3    3    0    0  0.93821000617E+00  0.21407204318E+02 -0.29198328875E+02  0.36217275488E+02  0.00000000000E+00 0. -1.
      -12    1    3    3    0    0 -0.93821000617E+00 -0.21407204318E+02 -0.44443693939E+03  0.44495319049E+03  0.00000000000E+00 0.  1.
</event>
<event>
 5   0  0.2392100E+01  0.8062427E+02  0.7957747E-01  0.1325895E+00
       -2   -1    0    0    0  501  0.00000000000E+00  0.00000000000E+00  0.68520522467E+03  0.68520522467E+03  0.00000000000E+00 0.  1.
        1   -1    0    0  501    0  0.00000000000E+00  0.00000000000E+00 -0.23716519629E+01  0.23716519629E+01  0.00000000000E+00 0. -1.
      -24    2    1    2    0    0  0.00000000000E+00  0.00000000000E+00  0.68283357271E+03  0.68757687663E+03  0.80624272178E+02 0.  0.
       11    1    3    3    0    0  0.16316603398E+02 -0.69384988578E+01  0.32667393740E+02  0.37168978015E+02  0.00000000000E+00 0. -1.
      -12    1    3    3    0    0 -0.16316603398E+02  0.69384988578E+01  0.65016617896E+03  0.65040789862E+03  0.00000000000E+00 0.  1.
</event>
<event>
 5   0  0.2392100E+01  0.8173617E+02  0.7957747E-01  0.1322964E+00
        3   -1    0    0  501    0  0.00000000000E+00  0.00000000000E+00  0.37429640412E+02  0.37429640412E+02  0.00000000000E+00 0. -1.
       -4   -1    0    0    0  501  0.00000000000E+00  0.00000000000E+00 -0.44622395586E+02  0.44622395586E+02  0.00000000000E+00 0.  1.
      -24    2    1    2    0    0  0.00000000000E+00  0.00000000000E+00 -0.71927551734E+01  0.82052035998E+02  0.81736166319E+02 0.  0.
       11    1    3    3    0    0  0.19581613007E+02 -0.40893115876E+01  0.32178939106E+02  0.37889921605E+02  0.00000000000E+00 0. -1.
      -12    1    3    3    0    0 -0.19581613007E+02  0.40893115876E+01 -0.39371694280E+02  0.44162114393E+02  0.00000000000E+00 0.  1.
</event>
<event>
 5   0  0.2392100E+01  0.8064139E+02  0.7957747E-01  0.1325850E+00
       -4   -1    0    0    0  501  0.00000000000E+00  0.00000000000E+00  0.78024201079E+01  0.78024201079E+01  0.00000000000E+00 0.  1.
        3   -1    0    0  501    0  0.00000000000E+00  0.00000000000E+00 -0.20836592909E+03  0.20836592909E+03  0.00000000000E+00 0. -1.
      -24    2    1    2    0    0  0.00000000000E+00  0.00000000000E+00 -0.20056350899E+03  0.21616834920E+03  0.80641391728E+02 0.  0.
       11    1    3    3    0    0 -0.16381996032E+02 -0.28798349157E+02 -0.16188010297E+03  0.16523583887E+03  0.00000000000E+00 0. -1.
      -12    1    3    3    0    0  0.16381996032E+02  0.28798349157E+02 -0.38683406017E+02  0.50932510337E+02  0.00000000000E+00 0.  1.
</event>
<event>
 5   0  0.2392100E+01  0.7999745E+02  0.7957747E-01  0.1327572E+00
        1   -1    0    0  501    0  0.00000000000E+00  0.00000000000E+00  0.99564948573E+02  0.99564948573E+02  0.00000000000E+00 0. -1.
       -2   -1    0    0    0  501  0.00000000000E+00  0.00000000000E+00 -0.16068889865E+02  0.16068889865E+02  0.00000000000E+00 0.  1.
      -24    2    1    2    0    0  0.00000000000E+00  0.00000000000E+00  0.83496058708E+02  0.11563383844E+03  0.79997454784E+02 0.  0.
       11    1    3    3    0    0  0.21767283298E+02 -0.48588386182E+01  0.89742720190E+02  0.92472583840E+02  0.00000000000E+00 0. -1.
      -12    1    3    3    0    0 -0.21767283298E+02  0.48588386182E+01 -0.62466614816E+01  0.23161254598E+02  0.00000000000E+00 0.  1.
</event>
<event>
 5   0  0.2392100E+01  0.8032351E+02  0.7957747E-01  0.1326697E+00
        1   -1    0    0  501    0  0.00000000000E+00  0.00000000000E+00  0.28760647687E+01  0.28760647687E+01  0.00000000000E+00 0. -1.
       -2   -1    0    0    0  501  0.00000000000E+00  0.00000000000E+00 -0.56082410789E+03  0.56082410789E+03  0.00000000000E+00 0.  1.
      -24    2    1    2    0    0  0.00000000000E+00  0.00000000000E+00 -0.55794804312E+03  0.56370017266E+03  0.80323507347E+02 0.  0.
       11    1    3    3    0    0  0.63567631228E+01 -0.17952084528E+02 -0.30826887064E+02  0.36235103730E+02  0.00000000000E+00 0. -1.
      -12    1    3    3    0    0 -0.63567631228E+01  0.17952084528E+02 -0.52712115605E+03  0.52746506893E+03  0.00000000000E+00 0.  1.
</event>
<event>
 5   0  0.2392100E+01  0.8781155E+02  0.7957747E-01  0.1307827E+00
        1   -1    0    0  501    0  0.00000000000E+00  0.00000000000E+00  0.11382158423E+03  0.11382158423E+03  0.00000000000E+00 0. -1.
       -2   -1    0    0    0  501  0.00000000000E+00  0.00000000000E+00 -0.16936305947E+02  0.16936305947E+02  0.00000000000E+00 0.  1.
      -24    2    1    2    0    0  0.00000000000E+00  0.00000000000E+00  0.96885278285E+02  0.13075789018E+03  0.87811552177E+02 0.  0.
       11    1    3    3    0    0 -0.18891076655E+02 -0.39632738483E+02  0.48890444747E+02  0.65710747404E+02  0.00000000000E+00 0. -1.
      -12    1    3    3    0    0  0.18891076655E+02  0.39632738483E+02  0.47994833538E+02  0.65047142775E+02  0.00000000000E+00 0.  1.
</event>
<event>
 5   0  0.2392100E+01  0.8029212E+02  0.7957747E-01  0.1326781E+00
        1   -1    0    0  501    0  0.00000000000E+00  0.00000000000E+00  0.45965292795E+02  0.45965292795E+02  0.00000000000E+00 0. -1.
       -2   -1    0    0    0  501  0.00000000000E+00  0.00000000000E+00 -0.35063546515E+02  0.35063546515E+02  0.00000000000E+00 0.  1.
      -24    2    1    2    0    0  0.00000000000E+00  0.00000000000E+00  0.10901746280E+02  0.81028839310E+02  0.80292121208E+02 0.  0.
       11    1    3    3    0    0 -0.38977116062E+01 -0.17160900365E+02  0.41865436041E+02  0.45413691680E+02  0.00000000000E+00 0. -1.
      -12    1    3    3    0    0  0.38977116062E+01  0.17160900365E+02 -0.30963689761E+02  0.35615147630E+02  0.00000000000E+00 0.  1.
</event>
<event>
 5   0  0.2392100E+01  0.8047174E+02  0.7957747E-01  0.1326302E+00
       -2   -1    0    0    0  501  0.00000000000E+00  0.00000000000E+00  0.51127831886E+02  0.51127831886E+02  0.00000000000E+00 0.  1.
        1   -1    0    0  501    0  0.00000000000E+00  0.00000000000E+00 -0.31664264246E+02  0.31664264246E+02  0.00000000000E+00 0. -1.
      -24    2    1    2    0    0  0.00000000000E+00  0.00000000000E+00  0.19463567640E+02  0.82792096133E+02  0.80471738621E+02 0.  0.
       11    1    3    3    0    0  0.15377810255E+02  0.21320609853E+02 -0.21607663737E+02  0.34028467273E+02  0.00000000000E+00 0. -1.
      -12    1    3    3    0    0 -0.15377810255E+02 -0.21320609853E+02  0.41071231377E+02  0.48763628860E+02  0.00000000000E+00 0.  1.
</event>
<event>
 5   0  0.2392100E+01  0.7773332E+02  0.7957747E-01  0.1333775E+00
       -2   -1    0    0    0  501  0.00000000000E+00  0.00000000000E+00  0.18196112663E+03  0.18196112663E+03  0.00000000000E+00 0.  1.
        1   -1    0    0  501    0  0.00000000000E+00  0.00000000000E+00 -0.83018678289E+01  0.83018678289E+01  0.00000000000E+00 0. -1.
      -24    2    1    2    0    0  0.00000000000E+00  0.00000000000E+00  0.17365925880E+03  0.19026299446E+03  0.77733319067E+02 0.  0.
       11    1    3    3    0    0  0.12628776640E+02 -0.18069254052E+01 -0.30312189884E+01  0.13112561436E+02  0.00000000000E+00 0. -1.
      -12    1    3    3    0    0 -0.12628776640E+02  0.18069254052E+01  0.17669047779E+03  0.17715043303E+03  0.00000000000E+00 0.  1.
</event>
<event>
 5   0  0.2392100E+01  0.7917973E+02  0.7957747E-01  0.1329785E+00
        1   -1    0    0  501    0  0.00000000000E+00  0.00000000000E+00  0.17268121121E+02  0.17268121121E+02  0.00000000000E+00 0. -1.
       -2   -1    0    0    0  501  0.00000000000E+00  0.00000000000E+00 -0.90765948347E+02  0.90765948347E+02  0.00000000000E+00 0.  1.
      -24    2    1    2    0    0  0.00000000000E+00  0.00000000000E+00 -0.73497827226E+02  0.10803406947E+03  0.79179729469E+02 0.  0.
       11    1    3    3    0    0  0.33453982624E+02 -0.21055741118E+02 -0.39751931058E+02  0.56060050038E+02  0.00000000000E+00 0. -1.
      -12    1    3    3    0    0 -0.33453982624E+02  0.21055741118E+02 -0.33745896167E+02  0.51974019429E+02  0.00000000000E+00 0.  1.
</event>
<event>
 5   0  0.2392100E+01  0.6805616E+02  0.7957747E-01  0.1363272E+00
       -2   -1    0    0    0  501  0.00000000000E+00  0.00000000000E+00  0.74563064455E+02  0.74563064455E+02  0.00000000000E+00 0.  1.
        1   -1    0    0  501    0  0.00000000000E+00  0.00000000000E+00 -0.15529272534E+02  0.15529272534E+02  0.00000000000E+00 0. -1.
      -24    2    1    2    0    0  0.00000000000E+00  0.00000000000E+00  0.59033791921E+02  0.90092336990E+02  0.68056157662E+02 0.  0.
       11    1    3    3    0    0 -0.20339270071E+02 -0.10883182602E+02 -0.35986154915E+01  0.23346939929E+02  0.00000000000E+00 0. -1.
      -12    1    3    3    0    0  0.20339270071E+02  0.10883182602E+02  0.62632407412E+02  0.66745397061E+02  0.00000000000E+00 0.  1.
</event>
<event>
 5   0  0.2392100E+01  0.8052938E+02  0.7957747E-01  0.1326148E+00
       -2   -1    0    0    0  501  0.00000000000E+00  0.00000000000E+00  0.22115613146E+03  0.22115613146E+03  0.00000000000E+00 0.  1.
        1   -1    0    0  501    0  0.00000000000E+00  0.00000000000E+00 -0.73307720191E+01  0.73307720191E+01  0.00000000000E+00 0. -1.
      -24    2    1    2    0    0  0.00000000000E+00  0.00000000000E+00  0.21382535944E+03  0.22848690348E+03  0.80529378002E+02 0.  0.
       11    1    3    3    0    0  0.32750132239E+02 -0.51858488964E+01  0.42101325878E+02  0.53590911833E+02  0.00000000000E+00 0. -1.
      -12    1    3    3    0    0 -0.32750132239E+02  0.51858488964E+01  0.17172403356E+03  0.17489599164E+03  0.00000000000E+00 0.  1.
</event>
<event>
 5   0  0.2392100E+01  0.7999722E+02  0.7957747E-01  0.1327572E+00
       -2   -1    0    0    0  501  0.00000000000E+00  0.00000000000E+00  0.23880271181E+03  0.23880271181E+03  0.00000000000E+00 0.  1.
        1   -1    0    0  501    0  0.00000000000E+00  0.00000000000E+00 -0.66996265539E+01  0.66996265539E+01  0.00000000000E+00 0. -1.
      -24    2    1    2    0    0  0.00000000000E+00  0.00000000000E+00  0.23210308526E+03  0.24550233837E+03  0.79997224682E+02 0.  0.
       11    1    3    3    0    0  0.53409160232E+01  0.23871376621E+02  0.18931080759E+02  0.30931437478E+02  0.00000000000E+00 0. -1.
      -12    1    3    3    0    0 -0.53409160232E+01 -0.23871376621E+02  0.21317200450E+03  0.21457090089E+03  0.00000000000E+00 0.  1.
</event>
<event>
 5   0  0.2392100E+01  0.7657451E+02  0.7957747E-01  0.1337043E+00
       -2   -1    0    0    0  501  0.00000000000E+00  0.00000000000E+00  0.63599087205E+01  0.63599087205E+01  0.00000000000E+00 0.  1.
        1   -1    0    0  501    0  0.00000000000E+00  0.00000000000E+00 -0.23049293665E+03  0.23049293665E+03  0.00000000000E+00 0. -1.
      -24    2    1    2    0    0  0.00000000000E+00  0.00000000000E+00 -0.22413302793E+03  0.23685284538E+03  0.76574513719E+02 0.  0.
       11    1    3    3    0    0  0.34339203957E+02  0.16588444782E+02 -0.12258152112E+03  0.12837673757E+03  0.00000000000E+00 0. -1.
      -12    1    3    3    0    0 -0.34339203957E+02 -0.16588444782E+02 -0.10155150682E+03  0.10847610781E+03  0.00000000000E+00 0.  1.
</event>
<event>
 5   0  0.2392100E+01  0.8904415E+02  0.7957747E-01  0.1304925E+00
       -2   -1    0    0    0  501  0.00000000000E+00  0.00000000000E+00  0.85471686589E+02  0.85471686589E+02  0.00000000000E+00 0.  1.
        1   -1    0    0  501    0  0.00000000000E+00  0.00000000000E+00 -0.23191482018E+02  0.23191482018E+02  0.00000000000E+00 0. -1.
      -24    2    1    2    0    0  0.00000000000E+00  0.00000000000E+00  0.62280204571E+02  0.10866316861E+03  0.89044148208E+02 0.  0.
       11    1    3    3    0    0  0.33534433150E+02  0.23277884778E+01 -0.44851131186E+01  0.33913021770E+02  0.00000000000E+00 0. -1.
      -12    1    3    3    0    0 -0.33534433150E+02 -0.23277884778E+01  0.66765317689E+02  0.74750146836E+02  0.00000000000E+00 0.  1.
</event>
<event>
 5   0  0.2392100E+01  0.8261566E+02  0.7957747E-01  0.1320682E+00
       -4   -1    0    0    0  501  0.00000000000E+00  0.00000000000E+00  0.36435403639E+02  0.36435403639E+02  0.00000000000E+00 0.  1.
        3   -1    0    0  501    0  0.00000000000E+00  0.00000000000E+00 -0.46831835719E+02  0.46831835719E+02  0.00000000000E+00 0. -1.
      -24    2    1    2    0    0  0.00000000000E+00  0.00000000000E+00 -0.10396432080E+02  0.83267239358E+02  0.82615660442E+02 0.  0.
       11    1    3    3    0    0 -0.15927175857E+02 -0.29749128269E+02 -0.29211557463E+02  0.44631834524E+02  0.00000000000E+00 0. -1.
      -12    1    3    3    0    0  0.15927175857E+02  0.29749128269E+02  0.18815125383E+02  0.38635404834E+02  0.00000000000E+00 0.  1.
</event>
<event>
 5   0  0.2392100E+01  0.8430812E+02  0.7957747E-01  0.1316380E+00
        1   -1    0    0  501    0  0.00000000000E+00  0.00000000000E+00  0.98257922066E+01  0.98257922066E+01  0.00000000000E+00 0. -1.
       -2   -1    0    0    0  501  0.00000000000E+00  0.00000000000E+00 -0.18084696679E+03  0.18084696679E+03  0.00000000000E+00 0.  1.
      -24    2    1    2    0    0  0.00000000000E+00  0.00000000000E+00 -0.17102117459E+03  0.19067275900E+03  0.84308118634E+02 0.  0.
       11    1    3    3    0    0 -0.28033796270E+02 -0.28101343270E+02 -0.53415885792E+02  0.66549500988E+02  0.00000000000E+00 0. -1.
      -12    1    3    3    0    0  0.28033796270E+02  0.28101343270E+02 -0.11760528879E+03  0.12412325801E+03  0.00000000000E+00 0.  1.
</event>
<event>
 5   0  0.2392100E+01  0.8072271E+02  0.7957747E-01  0.1325634E+00
        1   -1    0    0  501    0  0.00000000000E+00  0.00000000000E+00  0.64217838177E+02  0.64217838177E+02  0.00000000000E+00 0. -1.
       -2   -1    0    0    0  501  0.00000000000E+00  0.00000000000E+00 -0.25367388795E+02  0.25367388795E+02  0.00000000000E+00 0.  1.
      -24    2    1    2    0    0  0.00000000000E+00  0.00000000000E+00  0.38850449382E+02  0.89585226972E+02  0.80722707304E+02 0.  0.
       11    1    3    3    0    0 -0.24383926764E+02  0.22908446460E+02  0.44479597668E+02  0.55657950127E+02  0.00000000000E+00 0. -1.
      -12    1    3    3    0    0  0.24383926764E+02 -0.22908446460E+02 -0.56291482862E+01  0.33927276845E+02  0.00000000000E+00 0.  1.
</event>
<event>
 5   0  0.2392100E+01  0.8131527E+02  0.7957747E-01  0.1324067E+00
       -2   -1    0    0    0  501  0.00000000000E+00  0.00000000000E+00  0.14341931269E+02  0.14341931269E+02  0.00000000000E+00 0.  1.
        1   -1    0    0  501    0  0.00000000000E+00  0.00000000000E+00 -0.11525947226E+03  0.11525947226E+03  0.00000000000E+00 0. -1.
      -24    2    1    2    0    0  0.00000000000E+00  0.00000000000E+00 -0.10091754099E+03  0.12960140352E+03  0.81315273576E+02 0.  0.
       11    1    3    3    0    0  0.36234926528E+02 -0.12021530600E+02 -0.72746894595E+02  0.82155935705E+02  0.00000000000E+00 0. -1.
      -12    1    3    3    0    0 -0.36234926528E+02  0.12021530600E+02 -0.28170646391E+02  0.47445467819E+02  0.00000000000E+00 0.  1.
</event>
<event>
 5   0  0.2392100E+01  0.8310332E+02  0.7957747E-01  0.1319431E+00
        1   -1    0    0  501    0  0.00000000000E+00  0.00000000000E+00  0.27364131686E+01  0.27364131686E+01  0.00000000000E+00 0. -1.
       -2   -1    0    0    0  501  0.00000000000E+00  0.00000000000E+00 -0.63095016434E+03  0.63095016434E+03  0.00000000000E+00 0.  1.
      -24    2    1    2    0    0  0.00000000000E+00  0.00000000000E+00 -0.62821375117E+03  0.63368657751E+03  0.83103317345E+02 0.  0.
       11    1    3    3    0    0  0.31991968994E+02  0.46728890351E+01 -0.11508568407E+03  0.11954094131E+03  0.00000000000E+00 0. -1.
      -12    1    3    3    0    0 -0.31991968994E+02 -0.46728890351E+01 -0.51312806710E+03  0.51414563620E+03  0.00000000000E+00 0.  1.
</event>
<event>
 5   0  0.2392100E+01  0.8010010E+02  0.7957747E-01  0.1327296E+00
       -2   -1    0    0    0  501  0.00000000000E+00  0.00000000000E+00  0.58378241380E+03  0.58378241380E+03  0.00000000000E+00 0.  1.
        1   -1    0    0  501    0  0.00000000000E+00  0.00000000000E+00 -0.27476102337E+01  0.27476102337E+01  0.00000000000E+00 0. -1.
      -24    2    1    2    0    0  0.00000000000E+00  0.00000000000E+00  0.58103480357E+03  0.58653002404E+03  0.80100100735E+02 0.  0.
       11    1    3    3    0    0 -0.13271755675E+02  0.31007363067E+02  0.13237754831E+03  0.13660677641E+03  0.00000000000E+00 0. -1.
      -12    1    3    3    0    0  0.13271755675E+02 -0.31007363067E+02  0.44865725525E+03  0.44992324763E+03  0.00000000000E+00 0.  1.
</event>
<event>
 5   0  0.2392100E+01  0.8263249E+02  0.7957747E-01  0.1320639E+00
       -2   -1    0    0    0  501  0.00000000000E+00  0.00000000000E+00  0.70716447387E+01  0.70716447387E+01  0.00000000000E+00 0.  1.
        1   -1    0    0  501    0  0.00000000000E+00  0.00000000000E+00 -0.24139111937E+03  0.24139111937E+03  0.00000000000E+00 0. -1.
      -24    2    1    2    0    0  0.00000000000E+00  0.00000000000E+00 -0.23431947463E+03  0.24846276411E+03  0.82632493349E+02 0.  0.
       11    1    3    3    0    0 -0.37074404121E+02  0.18169215570E+02 -0.12181830721E+03  0.12862477136E+03  0.00000000000E+00 0. -1.
      -12    1    3    3    0    0  0.37074404121E+02 -0.18169215570E+02 -0.11250116742E+03  0.11983799275E+03  0.00000000000E+00 0.  1.
</event>
<event>
 5   0  0.2392100E+01  0.7819063E+02  0.7957747E-01  0.1332503E+00
        3   -1    0    0  501    0  0.00000000000E+00  0.00000000000E+00  0.45500989674E+02  0.45500989674E+02  0.00000000000E+00 0. -1.
       -4   -1    0    0    0  501  0.00000000000E+00  0.00000000000E+00 -0.33591440285E+02  0.33591440285E+02  0.00000000000E+00 0.  1.
      -24    2    1    2    0    0  0.00000000000E+00  0.00000000000E+00  0.11909549389E+02  0.79092429960E+02  0.78190633136E+02 0.  0.
       11    1    3    3    0    0  0.28004890042E+02  0.26376624708E+02  0.12995190436E+02  0.40606343984E+02  0.00000000000E+00 0. -1.
      -12    1    3    3    0    0 -0.28004890042E+02 -0.26376624708E+02 -0.10856410475E+01  0.38486085976E+02  0.00000000000E+00 0.  1.
</event>
<event>
 5   0  0.2392100E+01  0.7989624E+02  0.7957747E-01  0.1327844E+00
       -2   -1    0    0    0  501  0.00000000000E+00  0.00000000000E+00  0.23905825164E+03  0.23905825164E+03  0.00000000000E+00 0.  1.
        1   -1    0    0  501    0  0.00000000000E+00  0.00000000000E+00 -0.66755797642E+01  0.66755797642E+01  0.00000000000E+00 0. -1.
      -24    2    1    2    0    0  0.00000000000E+00  0.00000000000E+00  0.23238267187E+03  0.24573383140E+03  0.79896243393E+02 0.  0.
       11    1    3    3    0    0 -0.12902329391E+02  0.19441230706E+02  0.16461090183E+02  0.28555192962E+02  0.00000000000E+00 0. -1.
      -12    1    3    3    0    0  0.12902329391E+02 -0.19441230706E+02  0.21592158169E+03  0.21717863844E+03  0.00000000000E+00 0.  1.
</event>
<event>
 5   0  0.2392100E+01  0.8433075E+02  0.7957747E-01  0.1316323E+00
        3   -1    0    0  501    0  0.00000000000E+00  0.00000000000E+00  0.42375164652E+03  0.42375164652E+03  0.00000000000E+00 0. -1.
       -4   -1    0    0    0  501  0.00000000000E+00  0.00000000000E+00 -0.41956626484E+01  0.41956626484E+01  0.00000000000E+00 0.  1.
      -24    2    1    2    0    0  0.00000000000E+00  0.00000000000E+00  0.41955598388E+03  0.42794730917E+03  0.84330752529E+02 0.  0.
       11    1    3    3    0    0  0.34258760728E+02  0.20286362800E+02  0.13933019121E+03  0.14490721647E+03  0.00000000000E+00 0. -1.
      -12    1    3    3    0    0 -0.34258760728E+02 -0.20286362800E+02  0.28022579267E+03  0.28304009270E+03  0.00000000000E+00 0.  1.
</event>
<event>
 5   0  0.2392100E+01  0.8157529E+02  0.7957747E-01  0.1323385E+00
       -2   -1    0    0    0  501  0.00000000000E+00  0.00000000000E+00  0.78283626075E+02  0.78283626075E+02  0.00000000000E+00 0.  1.
        1   -1    0    0  501    0  0.00000000000E+00  0.00000000000E+00 -0.21251341081E+02  0.21251341081E+02  0.00000000000E+00 0. -1.
      -24    2    1    2    0    0  0.00000000000E+00  0.00000000000E+00  0.57032284994E+02  0.99534967156E+02  0.81575291327E+02 0.  0.
       11    1    3    3    0    0  0.34454105836E+01  0.32298373470E+02 -0.15844154658E+01  0.32520242239E+02  0.00000000000E+00 0. -1.
      -12    1    3    3    0    0 -0.34454105836E+01 -0.32298373470E+02  0.58616700460E+02  0.67014724917E+02  0.00000000000E+00 0.  1.
</event>
<event>
 5   0  0.2392100E+01  0.8005155E+02  0.7957747E-01  0.1327426E+00
        3   -1    0    0  501    0  0.00000000000E+00  0.00000000000E+00  0.30022098149E+02  0.30022098149E+02  0.00000000000E+00 0. -1.
       -4   -1    0    0    0  501  0.00000000000E+00  0.00000000000E+00 -0.53362780053E+02  0.53362780053E+02  0.00000000000E+00 0.  1.
      -24    2    1    2    0    0  0.00000000000E+00  0.00000000000E+00 -0.23340681905E+02  0.83384878202E+02  0.80051548899E+02 0.  0.
       11    1    3    3    0    0 -0.12912350865E+02  0.12776859103E+02  0.25481106797E+02  0.31293189946E+02  0.00000000000E+00 0. -1.
      -12    1    3    3    0    0  0.12912350865E+02 -0.12776859103E+02 -0.48821788701E+02  0.52091688256E+02  0.00000000000E+00 0.  1.
</event>
<event>
 5   0  0.2392100E+01  0.8226270E+02  0.7957747E-01  0.1321594E+00
       -2   -1    0    0    0  501  0.00000000000E+00  0.00000000000E+00  0.82028177334E+01  0.82028177334E+01  0.00000000000E+00 0.  1.
        1   -1    0    0  501    0  0.00000000000E+00  0.00000000000E+00 -0.20624474122E+03  0.20624474122E+03  0.00000000000E+00 0. -1.
      -24    2    1    2    0    0  0.00000000000E+00  0.00000000000E+00 -0.19804192349E+03  0.21444755895E+03  0.82262701650E+02 0.  0.
       11    1    3    3    0    0  0.29077132835E+02 -0.20310863471E+00 -0.17485634236E+03  0.17725761301E+03  0.00000000000E+00 0. -1.
      -12    1    3    3    0    0 -0.29077132835E+02  0.20310863471E+00 -0.23185581129E+02  0.37189945944E+02  0.00000000000E+00 0.  1.
</event>
<event>
 5   0  0.2392100E+01  0.7891853E+02  0.7957747E-01  0.1330498E+00
       -4   -1    0    0    0  501  0.00000000000E+00  0.00000000000E+00  0.26038131438E+01  0.26038131438E+01  0.00000000000E+00 0.  1.
        3   -1    0    0  501    0  0.00000000000E+00  0.00000000000E+00 -0.59798204417E+03  0.59798204417E+03  0.00000000000E+00 0. -1.
      -24    2    1    2    0    0  0.00000000000E+00  0.00000000000E+00 -0.59537823102E+03  0.60058585731E+03  0.78918527771E+02 0.  0.
       11    1    3    3    0    0  0.34472886569E+02 -0.10576518857E+02 -0.17573796665E+03  0.17939920731E+03  0.00000000000E+00 0. -1.
      -12    1    3    3    0    0 -0.34472886569E+02  0.10576518857E+02 -0.41964026437E+03  0.42118665001E+03  0.00000000000E+00 0.  1.
</event>
<event>
 5   0  0.2392100E+01  0.7246384E+02  0.7957747E-01  0.1349188E+00
       -4   -1    0    0    0  501  0.00000000000E+00  0.00000000000E+00  0.18622890821E+03  0.18622890821E+03  0.00000000000E+00 0.  1.
        3   -1    0    0  501    0  0.00000000000E+00  0.00000000000E+00 -0.70491322095E+01  0.70491322095E+01  0.00000000000E+00 0. -1.
      -24    2    1    2    0    0  0.00000000000E+00  0.00000000000E+00  0.17917977600E+03  0.19327804041E+03  0.72463844644E+02 0.  0.
       11    1    3    3    0    0 -0.32744253535E+02  0.15370624596E+02  0.84052594853E+02  0.91505633387E+02  0.00000000000E+00 0. -1.
      -12    1    3    3    0    0  0.32744253535E+02 -0.15370624596E+02  0.95127181143E+02  0.10177240703E+03  0.00000000000E+00 0.  1.
</event>
<event>
 5   0  0.2392100E+01  0.8172720E+02  0.7957747E-01  0.1322987E+00
        1   -1    0    0  501    0  0.00000000000E+00  0.00000000000E+00  0.19051009985E+03  0.19051009985E+03  0.00000000000E+00 0. -1.
       -2   -1    0    0    0  501  0.00000000000E+00  0.00000000000E+00 -0.87650679073E+01  0.87650679073E+01  0.00000000000E+00 0.  1.
      -24    2    1    2    0    0  0.00000000000E+00  0.00000000000E+00  0.18174503194E+03  0.19927516776E+03  0.81727203848E+02 0.  0.
       11    1    3    3    0    0  0.39132092798E+02  0.70125541410E+01  0.11391891621E+03  0.12065660393E+03  0.00000000000E+00 0. -1.
      -12    1    3    3    0    0 -0.39132092798E+02 -0.70125541410E+01  0.67826115732E+02  0.78618563823E+02  0.00000000000E+00 0.  1.
</event>
<event>
 5   0  0.2392100E+01  0.7973423E+02  0.7957747E-01  0.1328281E+00
       -4   -1    0    0    0  501  0.00000000000E+00  0.00000000000E+00  0.85769124116E+01  0.85769124116E+01  0.00000000000E+00 0.  1.
        3   -1    0    0  501    0  0.00000000000E+00  0.00000000000E+00 -0.18530991698E+03  0.18530991698E+03  0.00000000000E+00 0. -1.
      -24    2    1    2    0    0  0.00000000000E+00  0.00000000000E+00 -0.17673300457E+03  0.19388682939E+03  0.79734231719E+02 0.  0.
       11    1    3    3    0    0  0.17616769798E+02  0.20796483488E+02 -0.15911674102E+03  0.16143414006E+03  0.00000000000E+00 0. -1.
      -12    1    3    3    0    0 -0.17616769798E+02 -0.20796483488E+02 -0.17616263549E+02  0.32452689334E+02  0.00000000000E+00 0.  1.
</event>
<event>
 5   0  0.2392100E+01  0.7751657E+02  0.7957747E-01  0.1334381E+00
       -2   -1    0    0    0  501  0.00000000000E+00  0.00000000000E+00  0.23909853215E+02  0.23909853215E+02  0.00000000000E+00 0.  1.
        1   -1    0    0  501    0  0.00000000000E+00  0.00000000000E+00 -0.62827845401E+02  0.62827845401E+02  0.00000000000E+00 0. -1.
      -24    2    1    2    0    0  0.00000000000E+00  0.00000000000E+00 -0.38917992186E+02  0.86737698616E+02  0.77516567554E+02 0.  0.
       11    1    3    3    0    0  0.23082836583E+02  0.72379996399E+00 -0.54288286029E+02  0.58996264552E+02  0.00000000000E+00 0. -1.
      -12    1    3    3    0    0 -0.23082836583E+02 -0.72379996399E+00  0.15370293843E+02  0.27741434064E+02  0.00000000000E+00 0.  1.
</event>
<event>
 5   0  0.2392100E+01  0.8004394E+02  0.7957747E-01  0.1327447E+00
        1   -1    0    0  501    0  0.00000000000E+00  0.00000000000E+00  0.86749006608E+02  0.86749006608E+02  0.00000000000E+00 0. -1.
       -2   -1    0    0    0  501  0.00000000000E+00  0.00000000000E+00 -0.18464279788E+02  0.18464279788E+02  0.00000000000E+00 0.  1.
      -24    2    1    2    0    0  0.00000000000E+00  0.00000000000E+00  0.68284726821E+02  0.10521328640E+03  0.80043936168E+02 0.  0.
       11    1    3    3    0    0  0.30184216066E+02 -0.18225522316E+02  0.59030223505E+02  0.68759172845E+02  0.00000000000E+00 0. -1.
      -12    1    3    3    0    0 -0.30184216066E+02  0.18225522316E+02  0.92545033154E+01  0.36454113551E+02  0.00000000000E+00 0.  1.
</event>
<event>
 5   0  0.2392100E+01  0.7987958E+02  0.7957747E-01  0.1327889E+00
        1   -1    0    0  501    0  0.00000000000E+00  0.00000000000E+00  0.10355014516E+03  0.10355014516E+03  0.00000000000E+00 0. -1.
       -2   -1    0    0    0  501  0.00000000000E+00  0.00000000000E+00 -0.15404968731E+02  0.15404968731E+02  0.00000000000E+00 0.  1.
      -24    2    1    2    0    0  0.00000000000E+00  0.00000000000E+00  0.88145176430E+02  0.11895511389E+03  0.79879578075E+02 0.  0.
       11    1    3    3    0    0 -0.28593492541E+02 -0.27880721696E+02  0.43307012695E+02  0.58910269109E+02  0.00000000000E+00 0. -1.
      -12    1    3    3    0    0  0.28593492541E+02  0.27880721696E+02  0.44838163735E+02  0.60044844784E+02  0.00000000000E+00 0.  1.
</event>
<event>
 5   0  0.2392100E+01  0.8055026E+02  0.7957747E-01  0.1326092E+00
       -2   -1    0    0    0  501  0.00000000000E+00  0.00000000000E+00  0.96615440185E+02  0.96615440185E+02  0.00000000000E+00 0.  1.
        1   -1    0    0  501    0  0.00000000000E+00  0.00000000000E+00 -0.16789097783E+02  0.16789097783E+02  0.00000000000E+00 0. -1.
      -24    2    1    2    0    0  0.00000000000E+00  0.00000000000E+00  0.79826342402E+02  0.11340453797E+03  0.80550259406E+02 0.  0.
       11    1    3    3    0    0  0.89232240401E+00  0.11683913516E+02 -0.14336106402E+02  0.18515777626E+02  0.00000000000E+00 0. -1.
      -12    1    3    3    0    0 -0.89232240401E+00 -0.11683913516E+02  0.94162448804E+02  0.94888760342E+02  0.00000000000E+00 0.  1.
</event>
<event>
 5   0  0.2392100E+01  0.8018045E+02  0.7957747E-01  0.1327080E+00
       -2   -1    0    0    0  501  0.00000000000E+00  0.00000000000E+00  0.48307814623E+02  0.48307814623E+02  0.00000000000E+00 0.  1.
        1   -1    0    0  501    0  0.00000000000E+00  0.00000000000E+00 -0.33270523492E+02  0.33270523492E+02  0.00000000000E+00 0. -1.
      -24    2    1    2    0    0  0.00000000000E+00  0.00000000000E+00  0.15037291131E+02  0.81578338114E+02  0.80180453509E+02 0.  0.
       11    1    3    3    0    0 -0.26693805186E+02 -0.17554907527E+02 -0.17121172161E+02  0.36247324726E+02  0.00000000000E+00 0. -1.
      -12    1    3    3    0    0  0.26693805186E+02  0.17554907527E+02  0.32158463291E+02  0.45331013389E+02  0.00000000000E+00 0.  1.
</event>
<event>
 5   0  0.2392100E+01  0.8197223E+02  0.7957747E-01  0.1322348E+00
        1   -1    0    0  501    0  0.00000000000E+00  0.00000000000E+00  0.54731493185E+02  0.54731493185E+02  0.00000000000E+00 0. -1.
       -2   -1    0    0    0  501  0.00000000000E+00  0.00000000000E+00 -0.30692778214E+02  0.30692778214E+02  0.00000000000E+00 0.  1.
      -24    2    1    2    0    0  0.00000000000E+00  0.00000000000E+00  0.24038714972E+02  0.85424271399E+02  0.81972228996E+02 0.  0.
       11    1    3    3    0    0  0.17970319119E+02 -0.92507178902E+01  0.49176960319E+02  0.53168426504E+02  0.00000000000E+00 0. -1.
      -12    1    3    3    0    0 -0.17970319119E+02  0.92507178902E+01 -0.25138245347E+02  0.32255844895E+02  0.00000000000E+00 0.  1.
</event>
<event>
 5   0  0.2392100E+01  0.7954143E+02  0.7957747E-01  0.1328802E+00
       -2   -1    0    0    0  501  0.00000000000E+00  0.00000000000E+00  0.19757025402E+03  0.19757025402E+03  0.00000000000E+00 0.  1.
        1   -1    0    0  501    0  0.00000000000E+00  0.00000000000E+00 -0.80058094236E+01  0.80058094236E+01  0.00000000000E+00 0. -1.
      -24    2    1    2    0    0  0.00000000000E+00  0.00000000000E+00  0.18956444460E+03  0.20557606345E+03  0.79541430751E+02 0.  0.
       11    1    3    3    0    0 -0.33664389795E+02  0.10822346228E+02  0.47740100237E+02  0.59409860199E+02  0.00000000000E+00 0. -1.
      -12    1    3    3    0    0  0.33664389795E+02 -0.10822346228E+02  0.14182434436E+03  0.14616620325E+03  0.00000000000E+00 0.  1.
</event>
<event>
 5   0  0.2392100E+01  0.8070471E+02  0.7957747E-01  0.1325681E+00
        1   -1    0    0  501    0  0.00000000000E+00  0.00000000000E+00  0.22185348439E+03  0.22185348439E+03  0.00000000000E+00 0. -1.
       -2   -1    0    0    0  501  0.00000000000E+00  0.00000000000E+00 -0.73395854739E+01  0.73395854739E+01  0.00000000000E+00 0.  1.
      -24    2    1    2    0    0  0.00000000000E+00  0.00000000000E+00  0.21451389891E+03  0.22919306986E+03  0.80704711420E+02 0.  0.
       11    1    3    3    0    0  0.13953083569E+01  0.30939757603E+02  0.18071631529E+03  0.18335103517E+03  0.00000000000E+00 0. -1.
      -12    1    3    3    0    0 -0.13953083569E+01 -0.30939757603E+02  0.33797583626E+02  0.45842034694E+02  0.00000000000E+00 0.  1.
</event>
<event>
 5   0  0.2392100E+01  0.8011817E+02  0.7957747E-01  0.1327247E+00
       -2   -1    0    0    0  501  0.00000000000E+00  0.00000000000E+00  0.99470659408E+02  0.99470659408E+02  0.00000000000E+00 0.  1.
        1   -1    0    0  501    0  0.00000000000E+00  0.00000000000E+00 -0.16132699181E+02  0.16132699181E+02  0.00000000000E+00 0. -1.
      -24    2    1    2    0    0  0.00000000000E+00  0.00000000000E+00  0.83337960227E+02  0.11560335859E+03  0.80118168366E+02 0.  0.
       11    1    3    3    0    0  0.17908934015E+02 -0.13951005271E+02 -0.59551545270E+01  0.23469647017E+02  0.00000000000E+00 0. -1.
      -12    1    3    3    0    0 -0.17908934015E+02  0.13951005271E+02  0.89293114754E+02  0.92133711572E+02  0.00000000000E+00 0.  1.
</event>
<event>
 5   0  0.2392100E+01  0.8192779E+02  0.7957747E-01  0.1322464E+00
        1   -1    0    0  501    0  0.00000000000E+00  0.00000000000E+00  0.13931987992E+02  0.13931987992E+02  0.00000000000E+00 0. -1.
       -2   -1    0    0    0  501  0.00000000000E+00  0.00000000000E+00 -0.12044518644E+03  0.12044518644E+03  0.00000000000E+00 0.  1.
      -24    2    1    2    0    0  0.00000000000E+00  0.00000000000E+00 -0.10651319845E+03  0.13437717443E+03  0.81927794824E+02 0.  0.
       11    1    3    3    0    0 -0.36807282507E+02 -0.13017260874E+02 -0.32914551720E+02  0.51064594791E+02  0.00000000000E+00 0. -1.
      -12    1    3    3    0    0  0.36807282507E+02  0.13017260874E+02 -0.73598646731E+02  0.83312579643E+02  0.00000000000E+00 0.  1.
</event>
<event>
 5   0  0.2392100E+01  0.7709196E+02  0.7957747E-01  0.1335576E+00
        1   -1    0    0  501    0  0.00000000000E+00  0.00000000000E+00  0.29281210224E+02  0.29281210224E+02  0.00000000000E+00 0. -1.
       -2   -1    0    0    0  501  0.00000000000E+00  0.00000000000E+00 -0.50742181007E+02  0.50742181007E+02  0.00000000000E+00 0.  1.
      -24    2    1    2    0    0  0.00000000000E+00  0.00000000000E+00 -0.21460970783E+02  0.80023391232E+02  0.77091957280E+02 0.  0.
       11    1    3    3    0    0 -0.14278391239E+02  0.32799979050E+02  0.41709211891E+01  0.36015380959E+02  0.00000000000E+00 0. -1.
      -12    1    3    3    0    0  0.14278391239E+02 -0.32799979050E+02 -0.25631891972E+02  0.44008010272E+02  0.00000000000E+00 0.  1.
</event>
<event>
 5   0  0.2392100E+01  0.7966267E+02  0.7957747E-01  0.1328474E+00
       -4   -1    0    0    0  501  0.00000000000E+00  0.00000000000E+00  0.65133486828E+02  0.65133486828E+02  0.00000000000E+00 0.  1.
        3   -1    0    0  501    0  0.00000000000E+00  0.00000000000E+00 -0.24358210585E+02  0.24358210585E+02  0.00000000000E+00 0. -1.
      -24    2    1    2    0    0  0.00000000000E+00  0.00000000000E+00  0.40775276243E+02  0.89491697412E+02  0.79662668503E+02 0.  0.
       11    1    3    3    0    0  0.21564499401E+02 -0.37866353050E+01 -0.16991978576E+02  0.27714501209E+02  0.00000000000E+00 0. -1.
      -12    1    3    3    0    0 -0.21564499401E+02  0.37866353050E+01  0.57767254819E+02  0.61777196203E+02  0.00000000000E+00 0.  1.
</event>
<event>
 5   0  0.2392100E+01  0.8123660E+02  0.7957747E-01  0.1324274E+00
        3   -1    0    0  501    0  0.00000000000E+00  0.00000000000E+00  0.18560858095E+02  0.18560858095E+02  0.00000000000E+00 0. -1.
       -4   -1    0    0    0  501  0.00000000000E+00  0.00000000000E+00 -0.88888478558E+02  0.88888478558E+02  0.00000000000E+00 0.  1.
      -24    2    1    2    0    0  0.00000000000E+00  0.00000000000E+00 -0.70327620462E+02  0.10744933665E+03  0.81236603494E+02 0.  0.
       11    1    3    3    0    0 -0.18764316354E+02 -0.34270036429E+02 -0.20476112647E+02  0.44111292820E+02  0.00000000000E+00 0. -1.
      -12    1    3    3    0    0  0.18764316354E+02  0.34270036429E+02 -0.49851507816E+02  0.63338043833E+02  0.00000000000E+00 0.  1.
</event>
<event>
 5   0  0.2392100E+01  0.8201843E+02  0.7957747E-01  0.1322228E+00
        1   -1    0    0  501    0  0.00000000000E+00  0.00000000000E+00  0.11911015006E+03  0.11911015006E+03  0.00000000000E+00 0. -1.
       -2   -1    0    0    0  501  0.00000000000E+00  0.00000000000E+00 -0.14119333325E+02  0.14119333325E+02  0.00000000000E+00 0.  1.
      -24    2    1    2    0    0  0.00000000000E+00  0.00000000000E+00  0.10499081673E+03  0.13322948338E+03  0.82018434783E+02 0.  0.
       11    1    3    3    0    0  0.37098258172E+02 -0.16476813984E+02  0.61965689428E+02  0.74077748513E+02  0.00000000000E+00 0. -1.
      -12    1    3    3    0    0 -0.37098258172E+02  0.16476813984E+02  0.43025127304E+02  0.59151734869E+02  0.00000000000E+00 0.  1.
</event>
<event>
 5   0  0.2392100E+01  0.7898670E+02  0.7957747E-01  0.1330312E+00
       -2   -1    0    0    0  501  0.00000000000E+00  0.00000000000E+00  0.10665656305E+02  0.10665656305E+02  0.00000000000E+00 0.  1.
        1   -1    0    0  501    0  0.00000000000E+00  0.00000000000E+00 -0.14623804089E+03  0.14623804089E+03  0.00000000000E+00 0. -1.
      -24    2    1    2    0    0  0.00000000000E+00  0.00000000000E+00 -0.13557238458E+03  0.15690369719E+03  0.78986699711E+02 0.  0.
       11    1    3    3    0    0  0.13199881910E+02  0.33890401334E+02 -0.98362698484E+02  0.10487142908E+03  0.00000000000E+00 0. -1.
      -12    1    3    3    0    0 -0.13199881910E+02 -0.33890401334E+02 -0.37209686099E+02  0.52032268109E+02  0.00000000000E+00 0.  1.
</event>
<event>
 5   0  0.2392100E+01  0.7977300E+02  0.7957747E-01  0.1328176E+00
       -2   -1    0    0    0  501  0.00000000000E+00  0.00000000000E+00  0.37699423186E+01  0.37699423186E+01  0.00000000000E+00 0.  1.
        1   -1    0    0  501    0  0.00000000000E+00  0.00000000000E+00 -0.42200455602E+03  0.42200455602E+03  0.00000000000E+00 0. -1.
      -24    2    1    2    0    0  0.00000000000E+00  0.00000000000E+00 -0.41823461370E+03  0.42577449834E+03  0.79772998799E+02 0.  0.
       11    1    3    3    0    0  0.39757445335E+02  0.25016326381E+01 -0.19841572346E+03  0.20237517620E+03  0.00000000000E+00 0. -1.
      -12    1    3    3    0    0 -0.39757445335E+02 -0.25016326381E+01 -0.21981889024E+03  0.22339932214E+03  0.00000000000E+00 0.  1.
</event>
<event>
 5   0  0.2392100E+01  0.8155869E+02  0.7957747E-01  0.1323428E+00
        1   -1    0    0  501    0  0.00000000000E+00  0.00000000000E+00  0.77318900864E+02  0.77318900864E+02  0.00000000000E+00 0. -1.
       -2   -1    0    0    0  501  0.00000000000E+00  0.00000000000E+00 -0.21507743465E+02  0.21507743465E+02  0.00000000000E+00 0.  1.
      -24    2    1    2    0    0  0.00000000000E+00  0.00000000000E+00  0.55811157399E+02  0.98826644328E+02  0.81558692602E+02 0.  0.
       11    1    3    3    0    0 -0.11884240018E+02 -0.33769741299E+02  0.51567562162E+02  0.62776142407E+02  0.00000000000E+00 0. -1.
      -12    1    3    3    0    0  0.11884240018E+02  0.33769741299E+02  0.42435952371E+01  0.36050501921E+02  0.00000000000E+00 0.  1.
</event>
<event>
 5   0  0.2392100E+01  0.8265191E+02  0.7957747E-01  0.1320589E+00
        1   -1    0    0  501    0  0.00000000000E+00  0.00000000000E+00  0.48536661736E+03  0.48536661736E+03  0.00000000000E+00 0. -1.
       -2   -1    0    0    0  501  0.00000000000E+00  0.00000000000E+00 -0.35186488139E+01  0.35186488139E+01  0.00000000000E+00 0.  1.
      -24    2    1    2    0    0  0.00000000000E+00  0.00000000000E+00  0.48184796855E+03  0.48888526618E+03  0.82651912803E+02 0.  0.
       11    1    3    3    0    0  0.39171842023E+02 -0.12001851180E+02  0.20887530607E+03  0.21285528211E+03  0.00000000000E+00 0. -1.
      -12    1    3    3    0    0 -0.39171842023E+02  0.12001851180E+02  0.27297266248E+03  0.27602998406E+03  0.00000000000E+00 0.  1.
</event>
<event>
 5   0  0.2392100E+01  0.7864121E+02  0.7957747E-01  0.1331259E+00
       -2   -1    0    0    0  501  0.00000000000E+00  0.00000000000E+00  0.43115749546E+02  0.43115749546E+02  0.00000000000E+00 0.  1.
        1   -1    0    0  501    0  0.00000000000E+00  0.00000000000E+00 -0.35859516472E+02  0.35859516472E+02  0.00000000000E+00 0. -1.
      -24    2    1    2    0    0  0.00000000000E+00  0.00000000000E+00  0.72562330731E+01  0.78975266018E+02  0.78641208817E+02 0.  0.
       11    1    3    3    0    0 -0.38486469107E+02  0.25167933411E+01  0.11313557797E+02  0.40193769954E+02  0.00000000000E+00 0. -1.
      -12    1    3    3    0    0  0.38486469107E+02 -0.25167933411E+01 -0.40573247244E+01  0.38781496064E+02  0.00000000000E+00 0.  1.
</event>
<event>
 5   0  0.2392100E+01  0.7881376E+02  0.7957747E-01  0.1330785E+00
       -2   -1    0    0    0  501  0.00000000000E+00  0.00000000000E+00  0.73548937300E+01  0.73548937300E+01  0.00000000000E+00 0.  1.
        1   -1    0    0  501    0  0.00000000000E+00  0.00000000000E+00 -0.21113864047E+03  0.21113864047E+03  0.00000000000E+00 0. -1.
      -24    2    1    2    0    0  0.00000000000E+00  0.00000000000E+00 -0.20378374674E+03  0.21849353420E+03  0.78813761817E+02 0.  0.
       11    1    3    3    0    0 -0.38773439890E+02  0.69915080637E+01 -0.10411218298E+03  0.11131759731E+03  0.00000000000E+00 0. -1.
      -12    1    3    3    0    0  0.38773439890E+02 -0.69915080637E+01 -0.99671563753E+02  0.10717593688E+03  0.00000000000E+00 0.  1.
</event>
<event>
 5   0  0.2392100E+01  0.8392702E+02  0.7957747E-01  0.1317339E+00
       -2   -1    0    0    0  501  0.00000000000E+00  0.00000000000E+00  0.24310956736E+02  0.24310956736E+02  0.00000000000E+00 0.  1.
        1   -1    0    0  501    0  0.00000000000E+00  0.00000000000E+00 -0.72433849854E+02  0.72433849854E+02  0.00000000000E+00 0. -1.
      -24    2    1    2    0    0  0.00000000000E+00  0.00000000000E+00 -0.48122893118E+02  0.96744806590E+02  0.83927020441E+02 0.  0.
       11    1    3    3    0    0 -0.32061341473E+02 -0.49594412243E+01 -0.54742364931E+02  0.63633734705E+02  0.00000000000E+00 0. -1.
      -12    1    3    3    0    0  0.32061341473E+02  0.49594412243E+01  0.66194718136E+01  0.33111071885E+02  0.00000000000E+00 0.  1.
</event>
<event>
 5   0  0.2392100E+01  0.8070402E+02  0.7957747E-01  0.1325683E+00
       -4   -1    0    0    0  501  0.00000000000E+00  0.00000000000E+00  0.48188038225E+02  0.48188038225E+02  0.00000000000E+00 0.  1.
        3   -1    0    0  501    0  0.00000000000E+00  0.00000000000E+00 -0.33790227441E+02  0.33790227441E+02  0.00000000000E+00 0. -1.
      -24    2    1    2    0    0  0.00000000000E+00  0.00000000000E+00  0.14397810784E+02  0.81978265666E+02  0.80704021499E+02 0.  0.
       11    1    3    3    0    0  0.13008274752E+02 -0.65853788645E+01 -0.31020992772E+02  0.34276587044E+02  0.00000000000E+00 0. -1.
      -12    1    3    3    0    0 -0.13008274752E+02  0.65853788645E+01  0.45418803557E+02  0.47701678622E+02  0.00000000000E+00 0.  1.
</event>
<event>
 5   0  0.2392100E+01  0.8031441E+02  0.7957747E-01  0.1326722E+00
       -4   -1    0    0    0  501  0.00000000000E+00  0.00000000000E+00  0.20953543459E+02  0.20953543459E+02  0.00000000000E+00 0.  1.
        3   -1    0    0  501    0  0.00000000000E+00  0.00000000000E+00 -0.76960787805E+02  0.76960787805E+02  0.00000000000E+00 0. -1.
      -24    2    1    2    0    0  0.00000000000E+00  0.00000000000E+00 -0.56007244346E+02  0.97914331264E+02  0.80314412453E+02 0.  0.
       11    1    3    3    0    0 -0.24680607098E+02 -0.30336249339E+02 -0.39122587537E+02  0.55317241854E+02  0.00000000000E+00 0. -1.
      -12    1    3    3    0    0  0.24680607098E+02  0.30336249339E+02 -0.16884656809E+02  0.42597089411E+02  0.00000000000E+00 0.  1.
</event>
<event>
 5   0  0.2392100E+01  0.7978980E+02  0.7957747E-01  0.1328131E+00
       -2   -1    0    0    0  501  0.00000000000E+00  0.00000000000E+00  0.10958584067E+02  0.10958584067E+02  0.00000000000E+00 0.  1.
        1   -1    0    0  501    0  0.00000000000E+00  0.00000000000E+00 -0.14523801062E+03  0.14523801062E+03  0.00000000000E+00 0. -1.
      -24    2    1    2    0    0  0.00000000000E+00  0.00000000000E+00 -0.13427942656E+03  0.15619659469E+03  0.79789797572E+02 0.  0.
       11    1    3    3    0    0  0.13213959636E+01  0.35634818396E+02 -0.10215925333E+03  0.10820397133E+03  0.00000000000E+00 0. -1.
      -12    1    3    3    0    0 -0.13213959636E+01 -0.35634818396E+02 -0.32120173224E+02  0.47992623363E+02  0.00000000000E+00 0.  1.
</event>
<event>
 5   0  0.2392100E+01  0.7952299E+02  0.7957747E-01  0.1328852E+00
        1   -1    0    0  501    0  0.00000000000E+00  0.00000000000E+00  0.39197008242E+03  0.39197008242E+03  0.00000000000E+00 0. -1.
       -2   -1    0    0    0  501  0.00000000000E+00  0.00000000000E+00 -0.40334111259E+01  0.40334111259E+01  0.00000000000E+00 0.  1.
      -24    2    1    2    0    0  0.00000000000E+00  0.00000000000E+00  0.38793667130E+03  0.39600349355E+03  0.79522990172E+02 0.  0.
       11    1    3    3    0    0  0.32824752527E+02  0.22436521040E+02  0.19565437632E+03  0.19965344182E+03  0.00000000000E+00 0. -1.
      -12    1    3    3    0    0 -0.32824752527E+02 -0.22436521040E+02  0.19228229497E+03  0.19635005173E+03  0.00000000000E+00 0.  1.
</event>
<event>
 5   0  0.2392100E+01  0.8306922E+02  0.7957747E-01  0.1319518E+00
       -2   -1    0    0    0  501  0.00000000000E+00  0.00000000000E+00  0.12400795340E+02  0.12400795340E+02  0.00000000000E+00 0.  1.
        1   -1    0    0  501    0  0.00000000000E+00  0.00000000000E+00 -0.13911396497E+03  0.13911396497E+03  0.00000000000E+00 0. -1.
      -24    2    1    2    0    0  0.00000000000E+00  0.00000000000E+00 -0.12671316963E+03  0.15151476031E+03  0.83069219534E+02 0.  0.
       11    1    3    3    0    0  0.91643284350E+01  0.20555535764E+02 -0.12702836253E+03  0.12900666592E+03  0.00000000000E+00 0. -1.
      -12    1    3    3    0    0 -0.91643284350E+01 -0.20555535764E+02  0.31519290059E+00  0.22508094383E+02  0.00000000000E+00 0.  1.
</event>
<event>
 5   0  0.2392100E+01  0.8234642E+02  0.7957747E-01  0.1321377E+00
        1   -1    0    0  501    0  0.00000000000E+00  0.00000000000E+00  0.27804819203E+02  0.27804819203E+02  0.00000000000E+00 0. -1.
       -2   -1    0    0    0  501  0.00000000000E+00  0.00000000000E+00 -0.60969037601E+02  0.60969037601E+02  0.00000000000E+00 0.  1.
      -24    2    1    2    0    0  0.00000000000E+00  0.00000000000E+00 -0.33164218397E+02  0.88773856804E+02  0.82346416254E+02 0.  0.
       11    1    3    3    0    0  0.53341289787E+01  0.34898610091E+02  0.62580589162E+01  0.35854277565E+02  0.00000000000E+00 0. -1.
      -12    1    3    3    0    0 -0.53341289787E+01 -0.34898610091E+02 -0.39422277314E+02  0.52919579239E+02  0.00000000000E+00 0.  1.
</event>
<event>
 5   0  0.2392100E+01  0.8110842E+02  0.7957747E-01  0.1324612E+00
       -4   -1    0    0    0  501  0.00000000000E+00  0.00000000000E+00  0.86205984842E+02  0.86205984842E+02  0.00000000000E+00 0.  1.
        3   -1    0    0  501    0  0.00000000000E+00  0.00000000000E+00 -0.19078070342E+02  0.19078070342E+02  0.00000000000E+00 0. -1.
      -24    2    1    2    0    0  0.00000000000E+00  0.00000000000E+00  0.67127914500E+02  0.10528405518E+03  0.81108417387E+02 0.  0.
       11    1    3    3    0    0  0.72629969268E+01 -0.27397640885E+02 -0.40858113101E+01  0.28636963954E+02  0.00000000000E+00 0. -1.
      -12    1    3    3    0    0 -0.72629969268E+01  0.27397640885E+02  0.71213725810E+02  0.76647091231E+02  0.00000000000E+00 0.  1.
</event>
<event>
 5   0  0.2392100E+01  0.8060456E+02  0.7957747E-01  0.1325948E+00
       -4   -1    0    0    0  501  0.00000000000E+00  0.00000000000E+00  0.25141482495E+03  0.25141482495E+03  0.00000000000E+00 0.  1.
        3   -1    0    0  501    0  0.00000000000E+00  0.00000000000E+00 -0.64605330271E+01  0.64605330271E+01  0.00000000000E+00 0. -1.
      -24    2    1    2    0    0  0.00000000000E+00  0.00000000000E+00  0.24495429193E+03  0.25787535798E+03  0.80604560172E+02 0.  0.
       11    1    3    3    0    0 -0.24899009079E+02  0.22968357451E+02  0.52621158483E+02  0.62581885696E+02  0.00000000000E+00 0. -1.
      -12    1    3    3    0    0  0.24899009079E+02 -0.22968357451E+02  0.19233313344E+03  0.19529347229E+03  0.00000000000E+00 0.  1.
</event>
<event>
 5   0  0.2392100E+01  0.8034098E+02  0.7957747E-01  0.1326651E+00
       -4   -1    0    0    0  501  0.00000000000E+00  0.00000000000E+00  0.47810373159E+02  0.47810373159E+02  0.00000000000E+00 0.  1.
        3   -1    0    0  501    0  0.00000000000E+00  0.00000000000E+00 -0.33751421831E+02  0.33751421831E+02  0.00000000000E+00 0. -1.
      -24    2    1    2    0    0  0.00000000000E+00  0.00000000000E+00  0.14058951327E+02  0.81561794990E+02  0.80340975159E+02 0.  0.
       11    1    3    3    0    0  0.15490591021E+02  0.18249768109E+02 -0.25719912784E+02  0.35135827297E+02  0.00000000000E+00 0. -1.
      -12    1    3    3    0    0 -0.15490591021E+02 -0.18249768109E+02  0.39778864112E+02  0.46425967693E+02  0.00000000000E+00 0.  1.
</event>
<event>
 5   0  0.2392100E+01  0.8068734E+02  0.7957747E-01  0.1325728E+00
       -2   -1    0    0    0  501  0.00000000000E+00  0.00000000000E+00  0.12709928444E+02  0.12709928444E+02  0.00000000000E+00 0.  1.
        1   -1    0    0  501    0  0.00000000000E+00  0.00000000000E+00 -0.12805829604E+03  0.12805829604E+03  0.00000000000E+00 0. -1.
      -24    2    1    2    0    0  0.00000000000E+00  0.00000000000E+00 -0.11534836760E+03  0.14076822448E+03  0.80687341743E+02 0.  0.
       11    1    3    3    0    0 -0.30366600487E+02  0.14051607383E+02 -0.96997078399E+02  0.10260609784E+03  0.00000000000E+00 0. -1.
      -12    1    3    3    0    0  0.30366600487E+02 -0.14051607383E+02 -0.18351289197E+02  0.38162126649E+02  0.00000000000E+00 0.  1.
</event>
<event>
 5   0  0.2392100E+01  0.8009127E+02  0.7957747E-01  0.1327320E+00
        1   -1    0    0  501    0  0.00000000000E+00  0.00000000000E+00  0.44113892724E+02  0.44113892724E+02  0.00000000000E+00 0. -1.
       -2   -1    0    0    0  501  0.00000000000E+00  0.00000000000E+00 -0.36352562660E+02  0.36352562660E+02  0.00000000000E+00 0.  1.
      -24    2    1    2    0    0  0.00000000000E+00  0.00000000000E+00  0.77613300645E+01  0.80466455384E+02  0.80091274167E+02 0.  0.
       11    1    3    3    0    0  0.17098991591E+02 -0.12509377195E+02  0.38022097797E+02  0.43526313330E+02  0.00000000000E+00 0. -1.
      -12    1    3    3    0    0 -0.17098991591E+02  0.12509377195E+02 -0.30260767732E+02  0.36940142054E+02  0.00000000000E+00 0.  1.
</event>
<event>
 5   0  0.2392100E+01  0.8177196E+02  0.7957747E-01  0.1322870E+00
        1   -1    0    0  501    0  0.00000000000E+00  0.00000000000E+00  0.71833128246E+02  0.71833128246E+02  0.00000000000E+00 0. -1.
       -2   -1    0    0    0  501  0.00000000000E+00  0.00000000000E+00 -0.23271484519E+02  0.23271484519E+02  0.00000000000E+00 0.  1.
      -24    2    1    2    0    0  0.00000000000E+00  0.00000000000E+00  0.48561643728E+02  0.95104612765E+02  0.81771964191E+02 0.  0.
       11    1    3    3    0    0  0.16803151031E+02 -0.34129885929E+02  0.41705906121E+02  0.56449779481E+02  0.00000000000E+00 0. -1.
      -12    1    3    3    0    0 -0.16803151031E+02  0.34129885929E+02  0.68557376068E+01  0.38654833284E+02  0.00000000000E+00 0.  1.
</event>
<event>
 5   0  0.2392100E+01  0.8086203E+02  0.7957747E-01  0.1325264E+00
       -2   -1    0    0    0  501  0.00000000000E+00  0.00000000000E+00  0.21250617414E+02  0.21250617414E+02  0.00000000000E+00 0.  1.
        1   -1    0    0  501    0  0.00000000000E+00  0.00000000000E+00 -0.76923265389E+02  0.76923265389E+02  0.00000000000E+00 0. -1.
      -24    2    1    2    0    0  0.00000000000E+00  0.00000000000E+00 -0.55672647976E+02  0.98173882803E+02  0.80862027751E+02 0.  0.
       11    1    3    3    0    0 -0.94668240631E+01  0.16749277183E+02 -0.71009311571E+02  0.73569568258E+02  0.00000000000E+00 0. -1.
      -12    1    3    3    0    0  0.94668240631E+01 -0.16749277183E+02  0.15336663595E+02  0.24604314545E+02  0.00000000000E+00 0.  1.
</event>
<event>
 5   0  0.2392100E+01  0.8027966E+02  0.7957747E-01  0.1326815E+00
       -4   -1    0    0    0  501  0.00000000000E+00  0.00000000000E+00  0.80555431822E+02  0.80555431822E+02  0.00000000000E+00 0.  1.
        3   -1    0    0  501    0  0.00000000000E+00  0.00000000000E+00 -0.20001208016E+02  0.20001208016E+02  0.00000000000E+00 0. -1.
      -24    2    1    2    0    0  0.00000000000E+00  0.00000000000E+00  0.60554223805E+02  0.10055663984E+03  0.80279659908E+02 0.  0.
       11    1    3    3    0    0  0.28245390031E+02  0.27157578083E+02  0.19366733269E+02  0.43708196747E+02  0.00000000000E+00 0. -1.
      -12    1    3    3    0    0 -0.28245390031E+02 -0.27157578083E+02  0.41187490536E+02  0.56848443092E+02  0.00000000000E+00 0.  1.
</event>
<event>
 5   0  0.2392100E+01  0.8210078E+02  0.7957747E-01  0.1322014E+00
       -4   -1    0    0    0  501  0.00000000000E+00  0.00000000000E+00  0.26692453712E+03  0.26692453712E+03  0.00000000000E+00 0.  1.
        3   -1    0    0  501    0  0.00000000000E+00  0.00000000000E+00 -0.63131502338E+01  0.63131502338E+01  0.00000000000E+00 0. -1.
      -24    2    1    2    0    0  0.00000000000E+00  0.00000000000E+00  0.26061138689E+03  0.27323768735E+03  0.82100784501E+02 0.  0.
       11    1    3    3    0    0  0.35018756269E+02  0.19042240964E+02  0.97660932307E+02  0.10548259539E+03  0.00000000000E+00 0. -1.
      -12    1    3    3    0    0 -0.35018756269E+02 -0.19042240964E+02  0.16295045458E+03  0.16775509196E+03  0.00000000000E+00 0.  1.
</event>
<event>
 5   0  0.2392100E+01  0.7381720E+02  0.7957747E-01  0.1345091E+00
        1   -1    0    0  501    0  0.00000000000E+00  0.00000000000E+00  0.66495729674E+02  0.66495729674E+02  0.00000000000E+00 0. -1.
       -2   -1    0    0    0  501  0.00000000000E+00  0.00000000000E+00 -0.20486199211E+02  0.20486199211E+02  0.00000000000E+00 0.  1.
      -24    2    1    2    0    0  0.00000000000E+00  0.00000000000E+00  0.46009530463E+02  0.86981928885E+02  0.73817200294E+02 0.  0.
       11    1    3    3    0    0  0.97345700206E+01  0.19683809164E+02  0.57960653591E+02  0.61981058086E+02  0.00000000000E+00 0. -1.
      -12    1    3    3    0    0 -0.97345700206E+01 -0.19683809164E+02 -0.11951123129E+02  0.25000870800E+02  0.00000000000E+00 0.  1.
</event>
<event>
 5   0  0.2392100E+01  0.7760151E+02  0.7957747E-01  0.1334143E+00
        1   -1    0    0  501    0  0.00000000000E+00  0.00000000000E+00  0.13877379230E+03  0.13877379230E+03  0.00000000000E+00 0. -1.
       -2   -1    0    0    0  501  0.00000000000E+00  0.00000000000E+00 -0.10848580199E+02  0.10848580199E+02  0.00000000000E+00 0.  1.
      -24    2    1    2    0    0  0.00000000000E+00  0.00000000000E+00  0.12792521211E+03  0.14962237250E+03  0.77601510689E+02 0.  0.
       11    1    3    3    0    0 -0.31701045358E+02 -0.14036885309E+02  0.30372485077E+02  0.46092063045E+02  0.00000000000E+00 0. -1.
      -12    1    3    3    0    0  0.31701045358E+02  0.14036885309E+02  0.97552727028E+02  0.10353030946E+03  0.00000000000E+00 0.  1.
</event>
<event>
 5   0  0.2392100E+01  0.8538203E+02  0.7957747E-01  0.1313709E+00
       -2   -1    0    0    0  501  0.00000000000E+00  0.00000000000E+00  0.35347583727E+02  0.35347583727E+02  0.00000000000E+00 0.  1.
        1   -1    0    0  501    0  0.00000000000E+00  0.00000000000E+00 -0.51560038732E+02  0.51560038732E+02  0.00000000000E+00 0. -1.
      -24    2    1    2    0    0  0.00000000000E+00  0.00000000000E+00 -0.16212455005E+02  0.86907622459E+02  0.85382030570E+02 0.  0.
       11    1    3    3    0    0 -0.41582894139E+01 -0.41773286331E+02 -0.16005299279E+02  0.44927368349E+02  0.00000000000E+00 0. -1.
      -12    1    3    3    0    0  0.41582894139E+01  0.41773286331E+02 -0.20715572589E+00  0.41980254111E+02  0.00000000000E+00 0.  1.
</event>
<event>
 5   0  0.2392100E+01  0.8200182E+02  0.7957747E-01  0.1322271E+00
       -4   -1    0    0    0  501  0.00000000000E+00  0.00000000000E+00  0.12678703115E+03  0.12678703115E+03  0.00000000000E+00 0.  1.
        3   -1    0    0  501    0  0.00000000000E+00  0.00000000000E+00 -0.13259042388E+02  0.13259042388E+02  0.00000000000E+00 0. -1.
      -24    2    1    2    0    0  0.00000000000E+00  0.00000000000E+00  0.11352798876E+03  0.14004607354E+03  0.82001819985E+02 0.  0.
       11    1    3    3    0    0 -0.20721284856E+02  0.21071375735E+02  0.10530094788E+03  0.10936939309E+03  0.00000000000E+00 0. -1.
      -12    1    3    3    0    0  0.20721284856E+02 -0.21071375735E+02  0.82270408859E+01  0.30676680446E+02  0.00000000000E+00 0.  1.
</event>
<event>
 5   0  0.2392100E+01  0.8262383E+02  0.7957747E-01  0.1320661E+00
        3   -1    0    0  501    0  0.00000000000E+00  0.00000000000E+00  0.10904243296E+03  0.10904243296E+03  0.00000000000E+00 0. -1.
       -4   -1    0    0    0  501  0.00000000000E+00  0.00000000000E+00 -0.15651469124E+02  0.15651469124E+02  0.00000000000E+00 0.  1.
      -24    2    1    2    0    0  0.00000000000E+00  0.00000000000E+00  0.93390963838E+02  0.12469390209E+03  0.82623828832E+02 0.  0.
       11    1    3    3    0    0 -0.28000399823E+02  0.18182134346E+02  0.83417238422E+02  0.89850142268E+02  0.00000000000E+00 0. -1.
      -12    1    3    3    0    0  0.28000399823E+02 -0.18182134346E+02  0.99737254156E+01  0.34843759818E+02  0.00000000000E+00 0.  1.
</event>
<event>
 5   0  0.2392100E+01  0.7826184E+02  0.7957747E-01  0.1332306E+00
       -2   -1    0    0    0  501  0.00000000000E+00  0.00000000000E+00  0.20631930546E+03  0.20631930546E+03  0.00000000000E+00 0.  1.
        1   -1    0    0  501    0  0.00000000000E+00  0.00000000000E+00 -0.74216469656E+01  0.74216469656E+01  0.00000000000E+00 0. -1.
      -24    2    1    2    0    0  0.00000000000E+00  0.00000000000E+00  0.19889765850E+03  0.21374095243E+03  0.78261843764E+02 0.  0.
       11    1    3    3    0    0  0.10307673802E+02  0.26896595358E+02  0.27110539268E+02  0.39555736884E+02  0.00000000000E+00 0. -1.
      -12    1    3    3    0    0 -0.10307673802E+02 -0.26896595358E+02  0.17178711923E+03  0.17418521554E+03  0.00000000000E+00 0.  1.
</event>
<event>
 5   0  0.2392100E+01  0.8194519E+02  0.7957747E-01  0.1322418E+00
       -2   -1    0    0    0  501  0.00000000000E+00  0.00000000000E+00  0.12949971080E+03  0.12949971080E+03  0.00000000000E+00 0.  1.
        1   -1    0    0  501    0  0.00000000000E+00  0.00000000000E+00 -0.12963375587E+02  0.12963375587E+02  0.00000000000E+00 0. -1.
      -24    2    1    2    0    0  0.00000000000E+00  0.00000000000E+00  0.11653633521E+03  0.14246308639E+03  0.81945186301E+02 0.  0.
       11    1    3    3    0    0  0.44599675792E+01 -0.23228958237E+02  0.10503303321E+00  0.23653474238E+02  0.00000000000E+00 0. -1.
      -12    1    3    3    0    0 -0.44599675792E+01  0.23228958237E+02  0.11643130218E+03  0.11880961215E+03  0.00000000000E+00 0.  1.
</event>
<event>
 5   0  0.2392100E+01  0.8045630E+02  0.7957747E-01  0.1326343E+00
        1   -1    0    0  501    0  0.00000000000E+00  0.00000000000E+00  0.15151976945E+03  0.15151976945E+03  0.00000000000E+00 0. -1.
       -2   -1    0    0    0  501  0.00000000000E+00  0.00000000000E+00 -0.10680481792E+02  0.10680481792E+02  0.00000000000E+00 0.  1.
      -24    2    1    2    0    0  0.00000000000E+00  0.00000000000E+00  0.14083928765E+03  0.16220025124E+03  0.80456302143E+02 0.  0.
       11    1    3    3    0    0 -0.35825601475E+02  0.94485409512E+01  0.38828432410E+02  0.53669319080E+02  0.00000000000E+00 0. -1.
      -12    1    3    3    0    0  0.35825601475E+02 -0.94485409512E+01  0.10201085524E+03  0.10853093216E+03  0.00000000000E+00 0.  1.
</event>
<event>
 5   0  0.2392100E+01  0.5848257E+02  0.7957747E-01  0.1398541E+00
       -2   -1    0    0    0  501  0.00000000000E+00  0.00000000000E+00  0.56634714697E+02  0.56634714697E+02  0.00000000000E+00 0.  1.
        1   -1    0    0  501    0  0.00000000000E+00  0.00000000000E+00 -0.15097681346E+02  0.15097681346E+02  0.00000000000E+00 0. -1.
      -24    2    1    2    0    0  0.00000000000E+00  0.00000000000E+00  0.41537033351E+02  0.71732396043E+02  0.58482574348E+02 0.  0.
       11    1    3    3    0    0  0.12934032435E+02  0.32802145767E+01 -0.11145717878E+02  0.17386087246E+02  0.00000000000E+00 0. -1.
      -12    1    3    3    0    0 -0.12934032435E+02 -0.32802145767E+01  0.52682751230E+02  0.54346308797E+02  0.00000000000E+00 0.  1.
</event>
<event>
 5   0  0.2392100E+01  0.7563218E+02  0.7957747E-01  0.1339750E+00
       -2   -1    0    0    0  501  0.00000000000E+00  0.00000000000E+00  0.89977477645E+02  0.89977477645E+02  0.00000000000E+00 0.  1.
        1   -1    0    0  501    0  0.00000000000E+00  0.00000000000E+00 -0.15893494219E+02  0.15893494219E+02  0.00000000000E+00 0. -1.
      -24    2    1    2    0    0  0.00000000000E+00  0.00000000000E+00  0.74083983426E+02  0.10587097186E+03  0.75632176242E+02 0.  0.
       11    1    3    3    0    0 -0.84944783103E+01 -0.19469684637E+02 -0.67529874839E+01  0.22289630360E+02  0.00000000000E+00 0. -1.
      -12    1    3    3    0    0  0.84944783103E+01  0.19469684637E+02  0.80836970910E+02  0.83581341503E+02  0.00000000000E+00 0.  1.
</event>
<event>
 5   0  0.2392100E+01  0.8008122E+02  0.7957747E-01  0.1327347E+00
       -4   -1    0    0    0  501  0.00000000000E+00  0.00000000000E+00  0.11413593514E+03  0.11413593514E+03  0.00000000000E+00 0.  1.
        3   -1    0    0  501    0  0.00000000000E+00  0.00000000000E+00 -0.14046852258E+02  0.14046852258E+02  0.00000000000E+00 0. -1.
      -24    2    1    2    0    0  0.00000000000E+00  0.00000000000E+00  0.10008908288E+03  0.12818278740E+03  0.80081224222E+02 0.  0.
       11    1    3    3    0    0  0.25321438883E+02  0.96871689811E+01  0.28798031379E+01  0.27263708040E+02  0.00000000000E+00 0. -1.
      -12    1    3    3    0    0 -0.25321438883E+02 -0.96871689811E+01  0.97209279745E+02  0.10091907936E+03  0.00000000000E+00 0.  1.
</event>
<event>
 5   0  0.2392100E+01  0.9182423E+02  0.7957747E-01  0.1298568E+00
       -2   -1    0    0    0  501  0.00000000000E+00  0.00000000000E+00  0.26995932302E+02  0.26995932302E+02  0.00000000000E+00 0.  1.
        1   -1    0    0  501    0  0.00000000000E+00  0.00000000000E+00 -0.78082956375E+02  0.78082956375E+02  0.00000000000E+00 0. -1.
      -24    2    1    2    0    0  0.00000000000E+00  0.00000000000E+00 -0.51087024073E+02  0.10507888868E+03  0.91824227832E+02 0.  0.
       11    1    3    3    0    0 -0.26413857906E+02  0.20367369613E+02 -0.61647662343E+02  0.70092481101E+02  0.00000000000E+00 0. -1.
      -12    1    3    3    0    0  0.26413857906E+02 -0.20367369613E+02  0.10560638271E+02  0.34986407576E+02  0.00000000000E+00 0.  1.
</event>
<event>
 5   0  0.2392100E+01  0.1003745E+03  0.7957747E-01  0.1280504E+00
        1   -1    0    0  501    0  0.00000000000E+00  0.00000000000E+00  0.33985386730E+03  0.33985386730E+03  0.00000000000E+00 0. -1.
       -2   -1    0    0    0  501  0.00000000000E+00  0.00000000000E+00 -0.74113009056E+01  0.74113009056E+01  0.00000000000E+00 0.  1.
      -24    2    1    2    0    0  0.00000000000E+00  0.00000000000E+00  0.33244256639E+03  0.34726516821E+03  0.10037448430E+03 0.  0.
       11    1    3    3    0    0  0.45980720908E+02 -0.17253402403E+02  0.13045855708E+03  0.13939634753E+03  0.00000000000E+00 0. -1.
      -12    1    3    3    0    0 -0.45980720908E+02  0.17253402403E+02  0.20198400931E+03  0.20786882067E+03  0.00000000000E+00 0.  1.
</event>
<event>
 5   0  0.2392100E+01  0.8127285E+02  0.7957747E-01  0.1324179E+00
        3   -1    0    0  501    0  0.00000000000E+00  0.00000000000E+00  0.39678209783E+03  0.39678209783E+03  0.00000000000E+00 0. -1.
       -4   -1    0    0    0  501  0.00000000000E+00  0.00000000000E+00 -0.41617781466E+01  0.41617781466E+01  0.00000000000E+00 0.  1.
      -24    2    1    2    0    0  0.00000000000E+00  0.00000000000E+00  0.39262031968E+03  0.40094387598E+03  0.81272850663E+02 0.  0.
       11    1    3    3    0    0 -0.51833762561E+00 -0.40261434957E+02  0.16925906108E+03  0.17398241743E+03  0.00000000000E+00 0. -1.
      -12    1    3    3    0    0  0.51833762561E+00  0.40261434957E+02  0.22336125860E+03  0.22696145854E+03  0.00000000000E+00 0.  1.
</event>
<event>
 5   0  0.2392100E+01  0.7729560E+02  0.7957747E-01  0.1335002E+00
        1   -1    0    0  501    0  0.00000000000E+00  0.00000000000E+00  0.30840505577E+02  0.30840505577E+02  0.00000000000E+00 0. -1.
       -2   -1    0    0    0  501  0.00000000000E+00  0.00000000000E+00 -0.48431513877E+02  0.48431513877E+02  0.00000000000E+00 0.  1.
      -24    2    1    2    0    0  0.00000000000E+00  0.00000000000E+00 -0.17591008299E+02  0.79272019454E+02  0.77295598163E+02 0.  0.
       11    1    3    3    0    0 -0.28888227930E+02 -0.25553479802E+02 -0.62537603963E+01  0.39071979244E+02  0.00000000000E+00 0. -1.
      -12    1    3    3    0    0  0.28888227930E+02  0.25553479802E+02 -0.11337247903E+02  0.40200040211E+02  0.00000000000E+00 0.  1.
</event>
<event>
 5   0  0.2392100E+01  0.8028011E+02  0.7957747E-01  0.1326814E+00
        1   -1    0    0  501    0  0.00000000000E+00  0.00000000000E+00  0.41679861748E+03  0.41679861748E+03  0.00000000000E+00 0. -1.
       -2   -1    0    0    0  501  0.00000000000E+00  0.00000000000E+00 -0.38657138462E+01  0.38657138462E+01  0.00000000000E+00 0.  1.
      -24    2    1    2    0    0  0.00000000000E+00  0.00000000000E+00  0.41293290363E+03  0.42066433132E+03  0.80280114266E+02 0.  0.
       11    1    3    3    0    0 -0.77817420700E+01  0.25136089116E+02  0.47630430061E+02  0.54415405479E+02  0.00000000000E+00 0. -1.
      -12    1    3    3    0    0  0.77817420700E+01 -0.25136089116E+02  0.36530247357E+03  0.36624892584E+03  0.00000000000E+00 0.  1.
</event>
<event>
 5   0  0.2392100E+01  0.8845824E+02  0.7957747E-01  0.1306298E+00
        1   -1    0    0  501    0  0.00000000000E+00  0.00000000000E+00  0.66481406815E+01  0.66481406815E+01  0.00000000000E+00 0. -1.
       -2   -1    0    0    0  501  0.00000000000E+00  0.00000000000E+00 -0.29424994798E+03  0.29424994798E+03  0.00000000000E+00 0.  1.
      -24    2    1    2    0    0  0.00000000000E+00  0.00000000000E+00 -0.28760180730E+03  0.30089808866E+03  0.88458239859E+02 0.  0.
       11    1    3    3    0    0  0.13965165352E+02  0.39321619660E+02 -0.93923964530E+02  0.10277609999E+03  0.00000000000E+00 0. -1.
      -12    1    3    3    0    0 -0.13965165352E+02 -0.39321619660E+02 -0.19367784277E+03  0.19812198868E+03  0.00000000000E+00 0.  1.
</event>
<event>
 5   0  0.2392100E+01  0.7504394E+02  0.7957747E-01  0.1341462E+00
        3   -1    0    0  501    0  0.00000000000E+00  0.00000000000E+00  0.24153884925E+03  0.24153884925E+03  0.00000000000E+00 0. -1.
       -4   -1    0    0    0  501  0.00000000000E+00  0.00000000000E+00 -0.58288692196E+01  0.58288692196E+01  0.00000000000E+00 0.  1.
      -24    2    1    2    0    0  0.00000000000E+00  0.00000000000E+00  0.23570998003E+03  0.24736771847E+03  0.75043943493E+02 0.  0.
       11    1    3    3    0    0  0.15616667916E+02 -0.34109844114E+02  0.11544039008E+03  0.12138305254E+03  0.00000000000E+00 0. -1.
      -12    1    3    3    0    0 -0.15616667916E+02  0.34109844114E+02  0.12026958995E+03  0.12598466593E+03  0.00000000000E+00 0.  1.
</event>
<event>
 5   0  0.2392100E+01  0.7878423E+02  0.7957747E-01  0.1330866E+00
        3   -1    0    0  501    0  0.00000000000E+00  0.00000000000E+00  0.42738461948E+01  0.42738461948E+01  0.00000000000E+00 0. -1.
       -4   -1    0    0    0  501  0.00000000000E+00  0.00000000000E+00 -0.36307780940E+03  0.36307780940E+03  0.00000000000E+00 0.  1.
      -24    2    1    2    0    0  0.00000000000E+00  0.00000000000E+00 -0.35880396320E+03  0.36735165559E+03  0.78784229745E+02 0.  0.
       11    1    3    3    0    0 -0.33418665239E+02 -0.17569381221E+02 -0.12701111284E+03  0.13250401174E+03  0.00000000000E+00 0. -1.
      -12    1    3    3    0    0  0.33418665239E+02  0.17569381221E+02 -0.23179285036E+03  0.23484764385E+03  0.00000000000E+00 0.  1.
</event>
<event>
 5   0  0.2392100E+01  0.7955800E+02  0.7957747E-01  0.1328757E+00
        1   -1    0    0  501    0  0.00000000000E+00  0.00000000000E+00  0.11209275962E+02  0.11209275962E+02  0.00000000000E+00 0. -1.
       -2   -1    0    0    0  501  0.00000000000E+00  0.00000000000E+00 -0.14116601866E+03  0.14116601866E+03  0.00000000000E+00 0.  1.
      -24    2    1    2    0    0  0.00000000000E+00  0.00000000000E+00 -0.12995674269E+03  0.15237529462E+03  0.79558000466E+02 0.  0.
       11    1    3    3    0    0 -0.28775301050E+02  0.25562243885E+02 -0.45737492425E+02  0.59777625215E+02  0.00000000000E+00 0. -1.
      -12    1    3    3    0    0  0.28775301050E+02 -0.25562243885E+02 -0.84219250269E+02  0.92597669403E+02  0.00000000000E+00 0.  1.
</event>
<event>
 5   0  0.2392100E+01  0.7750527E+02  0.7957747E-01  0.1334413E+00
        1   -1    0    0  501    0  0.00000000000E+00  0.00000000000E+00  0.88474676496E+02  0.88474676496E+02  0.00000000000E+00 0. -1.
       -2   -1    0    0    0  501  0.00000000000E+00  0.00000000000E+00 -0.16973973352E+02  0.16973973352E+02  0.00000000000E+00 0.  1.
      -24    2    1    2    0    0  0.00000000000E+00  0.00000000000E+00  0.71500703144E+02  0.10544864985E+03  0.77505272109E+02 0.  0.
       11    1    3    3    0    0  0.18720916966E+02 -0.33001941370E+02  0.46477542558E+02  0.59998023538E+02  0.00000000000E+00 0. -1.
      -12    1    3    3    0    0 -0.18720916966E+02  0.33001941370E+02  0.25023160586E+02  0.45450626310E+02  0.00000000000E+00 0.  1.
</event>
<event>
 5   0  0.2392100E+01  0.8237252E+02  0.7957747E-01  0.1321310E+00
       -2   -1    0    0    0  501  0.00000000000E+00  0.00000000000E+00  0.21965421521E+02  0.21965421521E+02  0.00000000000E+00 0.  1.
        1   -1    0    0  501    0  0.00000000000E+00  0.00000000000E+00 -0.77226285498E+02  0.77226285498E+02  0.00000000000E+00 0. -1.
      -24    2    1    2    0    0  0.00000000000E+00  0.00000000000E+00 -0.55260863976E+02  0.99191707019E+02  0.82372517589E+02 0.  0.
       11    1    3    3    0    0 -0.19224724550E+02  0.30500899964E+02 -0.51605892526E+02  0.62952863923E+02  0.00000000000E+00 0. -1.
      -12    1    3    3    0    0  0.19224724550E+02 -0.30500899964E+02 -0.36549714502E+01  0.36238843096E+02  0.00000000000E+00 0.  1.
</event>
<event>
 5   0  0.2392100E+01  0.7893404E+02  0.7957747E-01  0.1330456E+00
       -2   -1    0    0    0  501  0.00000000000E+00  0.00000000000E+00  0.17747664980E+03  0.17747664980E+03  0.00000000000E+00 0.  1.
        1   -1    0    0  501    0  0.00000000000E+00  0.00000000000E+00 -0.87766239858E+01  0.87766239858E+01  0.00000000000E+00 0. -1.
      -24    2    1    2    0    0  0.00000000000E+00  0.00000000000E+00  0.16870002582E+03  0.18625327379E+03  0.78934043900E+02 0.  0.
       11    1    3    3    0    0 -0.33694501361E+02  0.19418211920E+02  0.10022429803E+03  0.10750486636E+03  0.00000000000E+00 0. -1.
      -12    1    3    3    0    0  0.33694501361E+02 -0.19418211920E+02  0.68475727791E+02  0.78748407429E+02  0.00000000000E+00 0.  1.
</event>
<event>
 5   0  0.2392100E+01  0.8225993E+02  0.7957747E-01  0.1321601E+00
        1   -1    0    0  501    0  0.00000000000E+00  0.00000000000E+00  0.16650938199E+03  0.16650938199E+03  0.00000000000E+00 0. -1.
       -2   -1    0    0    0  501  0.00000000000E+00  0.00000000000E+00 -0.10159631842E+02  0.10159631842E+02  0.00000000000E+00 0.  1.
      -24    2    1    2    0    0  0.00000000000E+00  0.00000000000E+00  0.15634975015E+03  0.17666901384E+03  0.82259929961E+02 0.  0.
       11    1    3    3    0    0  0.61867792414E+01  0.29026589405E+02  0.13933151542E+03  0.14245732807E+03  0.00000000000E+00 0. -1.
      -12    1    3    3    0    0 -0.61867792414E+01 -0.29026589405E+02  0.17018234729E+02  0.34211685769E+02  0.00000000000E+00 0.  1.
</event>
<event>
 5   0  0.2392100E+01  0.7977240E+02  0.7957747E-01  0.1328178E+00
        1   -1    0    0  501    0  0.00000000000E+00  0.00000000000E+00  0.14383967023E+03  0.14383967023E+03  0.00000000000E+00 0. -1.
       -2   -1    0    0    0  501  0.00000000000E+00  0.00000000000E+00 -0.11060293023E+02  0.11060293023E+02  0.00000000000E+00 0.  1.
      -24    2    1    2    0    0  0.00000000000E+00  0.00000000000E+00  0.13277937720E+03  0.15489996325E+03  0.79772398763E+02 0.  0.
       11    1    3    3    0    0 -0.11137862895E+02  0.37654236933E+02  0.79984235179E+02  0.89103150483E+02  0.00000000000E+00 0. -1.
      -12    1    3    3    0    0  0.11137862895E+02 -0.37654236933E+02  0.52795142023E+02  0.65796812766E+02  0.00000000000E+00 0.  1.
</event>
<event>
 5   0  0.2392100E+01  0.7944649E+02  0.7957747E-01  0.1329060E+00
        3   -1    0    0  501    0  0.00000000000E+00  0.00000000000E+00  0.11972111865E+02  0.11972111865E+02  0.00000000000E+00 0. -1.
       -4   -1    0    0    0  501  0.00000000000E+00  0.00000000000E+00 -0.13180098116E+03  0.13180098116E+03  0.00000000000E+00 0.  1.
      -24    2    1    2    0    0  0.00000000000E+00  0.00000000000E+00 -0.11982886929E+03  0.14377309302E+03  0.79446487408E+02 0.  0.
       11    1    3    3    0    0 -0.14814953267E+02 -0.65494864516E+01  0.57239416343E+01  0.17179700839E+02  0.00000000000E+00 0. -1.
      -12    1    3    3    0    0  0.14814953267E+02  0.65494864516E+01 -0.12555281093E+03  0.12659339218E+03  0.00000000000E+00 0.  1.
</event>
<event>
 5   0  0.2392100E+01  0.8073105E+02  0.7957747E-01  0.1325611E+00
        1   -1    0    0  501    0  0.00000000000E+00  0.00000000000E+00  0.12959621416E+03  0.12959621416E+03  0.00000000000E+00 0. -1.
       -2   -1    0    0    0  501  0.00000000000E+00  0.00000000000E+00 -0.12572710933E+02  0.12572710933E+02  0.00000000000E+00 0.  1.
      -24    2    1    2    0    0  0.00000000000E+00  0.00000000000E+00  0.11702350323E+03  0.14216892509E+03  0.80731053224E+02 0.  0.
       11    1    3    3    0    0  0.33725468651E+02  0.18712636593E+02  0.79482356540E+02  0.88345995977E+02  0.00000000000E+00 0. -1.
      -12    1    3    3    0    0 -0.33725468651E+02 -0.18712636593E+02  0.37541146686E+02  0.53822929115E+02  0.00000000000E+00 0.  1.
</event>
<event>
 5   0  0.2392100E+01  0.7991687E+02  0.7957747E-01  0.1327788E+00
        1   -1    0    0  501    0  0.00000000000E+00  0.00000000000E+00  0.13390746565E+03  0.13390746565E+03  0.00000000000E+00 0. -1.
       -2   -1    0    0    0  501  0.00000000000E+00  0.00000000000E+00 -0.11923730822E+02  0.11923730822E+02  0.00000000000E+00 0.  1.
      -24    2    1    2    0    0  0.00000000000E+00  0.00000000000E+00  0.12198373483E+03  0.14583119647E+03  0.79916871196E+02 0.  0.
       11    1    3    3    0    0  0.94327173003E+01 -0.36307074273E+02  0.35872258080E+02  0.51903744544E+02  0.00000000000E+00 0. -1.
      -12    1    3    3    0    0 -0.94327173003E+01  0.36307074273E+02  0.86111476749E+02  0.93927451929E+02  0.00000000000E+00 0.  1.
</event>
<event>
 5   0  0.2392100E+01  0.7833675E+02  0.7957747E-01  0.1332098E+00
        3   -1    0    0  501    0  0.00000000000E+00  0.00000000000E+00  0.12318717527E+02  0.12318717527E+02  0.00000000000E+00 0. -1.
       -4   -1    0    0    0  501  0.00000000000E+00  0.00000000000E+00 -0.12453906113E+03  0.12453906113E+03  0.00000000000E+00 0.  1.
      -24    2    1    2    0    0  0.00000000000E+00  0.00000000000E+00 -0.11222034361E+03  0.13685777866E+03  0.78336747831E+02 0.  0.
       11    1    3    3    0    0  0.33529780826E+02  0.86560618413E+00 -0.20771213886E+02  0.39451727499E+02  0.00000000000E+00 0. -1.
      -12    1    3    3    0    0 -0.33529780826E+02 -0.86560618413E+00 -0.91449129721E+02  0.97406051163E+02  0.00000000000E+00 0.  1.
</event>
<event>
 5   0  0.2392100E+01  0.8441493E+02  0.7957747E-01  0.1316113E+00
       -2   -1    0    0    0  501  0.00000000000E+00  0.00000000000E+00  0.26076169088E+03  0.26076169088E+03  0.00000000000E+00 0.  1.
        1   -1    0    0  501    0  0.00000000000E+00  0.00000000000E+00 -0.68317933076E+01  0.68317933076E+01  0.00000000000E+00 0. -1.
      -24    2    1    2    0    0  0.00000000000E+00  0.00000000000E+00  0.25392989757E+03  0.26759348419E+03  0.84414926989E+02 0.  0.
       11    1    3    3    0    0  0.31292543830E+02 -0.28022723784E+02  0.14002496190E+03  0.14618989808E+03  0.00000000000E+00 0. -1.
      -12    1    3    3    0    0 -0.31292543830E+02  0.28022723784E+02  0.11390493568E+03  0.12140358610E+03  0.00000000000E+00 0.  1.
</event>
<event>
 5   0  0.2392100E+01  0.8107098E+02  0.7957747E-01  0.1324711E+00
       -2   -1    0    0    0  501  0.00000000000E+00  0.00000000000E+00  0.16375562623E+02  0.16375562623E+02  0.00000000000E+00 0.  1.
        1   -1    0    0  501    0  0.00000000000E+00  0.00000000000E+00 -0.10034012567E+03  0.10034012567E+03  0.00000000000E+00 0. -1.
      -24    2    1    2    0    0  0.00000000000E+00  0.00000000000E+00 -0.83964563047E+02  0.11671568829E+03  0.81070981530E+02 0.  0.
       11    1    3    3    0    0  0.29044241352E+02 -0.28176881963E+02 -0.38568896900E+02  0.55902275811E+02  0.00000000000E+00 0. -1.
      -12    1    3    3    0    0 -0.29044241352E+02  0.28176881963E+02 -0.45395666148E+02  0.60813412483E+02  0.00000000000E+00 0.  1.
</event>
<event>
 5   0  0.2392100E+01  0.8094234E+02  0.7957747E-01  0.1325051E+00
       -4   -1    0    0    0  501  0.00000000000E+00  0.00000000000E+00  0.95791596208E+01  0.95791596208E+01  0.00000000000E+00 0.  1.
        3   -1    0    0  501    0  0.00000000000E+00  0.00000000000E+00 -0.17098739111E+03  0.17098739111E+03  0.00000000000E+00 0. -1.
      -24    2    1    2    0    0  0.00000000000E+00  0.00000000000E+00 -0.16140823149E+03  0.18056655073E+03  0.80942337811E+02 0.  0.
       11    1    3    3    0    0 -0.21989276934E+02 -0.21597036852E+02 -0.13921567085E+03  0.14258668701E+03  0.00000000000E+00 0. -1.
      -12    1    3    3    0    0  0.21989276934E+02  0.21597036852E+02 -0.22192560638E+02  0.37979863724E+02  0.00000000000E+00 0.  1.
</event>
<event>
 5   0  0.2392100E+01  0.8396344E+02  0.7957747E-01  0.1317247E+00
        1   -1    0    0  501    0  0.00000000000E+00  0.00000000000E+00  0.25512155197E+02  0.25512155197E+02  0.00000000000E+00 0. -1.
       -2   -1    0    0    0  501  0.00000000000E+00  0.00000000000E+00 -0.69083338053E+02  0.69083338053E+02  0.00000000000E+00 0.  1.
      -24    2    1    2    0    0  0.00000000000E+00  0.00000000000E+00 -0.43571182856E+02  0.94595493250E+02  0.83963440662E+02 0.  0.
       11    1    3    3    0    0  0.13001618808E+02  0.36987463608E+02 -0.48730343137E+01  0.39507733663E+02  0.00000000000E+00 0. -1.
      -12    1    3    3    0    0 -0.13001618808E+02 -0.36987463608E+02 -0.38698148542E+02  0.55087759587E+02  0.00000000000E+00 0.  1.
</event>
<event>
 5   0  0.2392100E+01  0.8120676E+02  0.7957747E-01  0.1324353E+00
       -2   -1    0    0    0  501  0.00000000000E+00  0.00000000000E+00  0.62788007594E+02  0.62788007594E+02  0.00000000000E+00 0.  1.
        1   -1    0    0  501    0  0.00000000000E+00  0.00000000000E+00 -0.26257156215E+02  0.26257156215E+02  0.00000000000E+00 0. -1.
      -24    2    1    2    0    0  0.00000000000E+00  0.00000000000E+00  0.36530851379E+02  0.89045163809E+02  0.81206761389E+02 0.  0.
       11    1    3    3    0    0 -0.28307147800E+02  0.46631474822E+00 -0.13649309419E+02  0.31429535689E+02  0.00000000000E+00 0. -1.
      -12    1    3    3    0    0  0.28307147800E+02 -0.46631474822E+00  0.50180160797E+02  0.57615628120E+02  0.00000000000E+00 0.  1.
</event>
<event>
 5   0  0.2392100E+01  0.8056838E+02  0.7957747E-01  0.1326044E+00
        1   -1    0    0  501    0  0.00000000000E+00  0.00000000000E+00  0.25120405619E+03  0.25120405619E+03  0.00000000000E+00 0. -1.
       -2   -1    0    0    0  501  0.00000000000E+00  0.00000000000E+00 -0.64601503761E+01  0.64601503761E+01  0.00000000000E+00 0.  1.
      -24    2    1    2    0    0  0.00000000000E+00  0.00000000000E+00  0.24474390581E+03  0.25766420656E+03  0.80568380350E+02 0.  0.
       11    1    3    3    0    0 -0.37560141133E+02  0.12675670550E+02  0.14529555843E+03  0.15060622871E+03  0.00000000000E+00 0. -1.
      -12    1    3    3    0    0  0.37560141133E+02 -0.12675670550E+02  0.99448347377E+02  0.10705797785E+03  0.00000000000E+00 0.  1.
</event>
<event>
 5   0  0.2392100E+01  0.8193878E+02  0.7957747E-01  0.1322435E+00
        3   -1    0    0  501    0  0.00000000000E+00  0.00000000000E+00  0.60708484519E+02  0.60708484519E+02  0.00000000000E+00 0. -1.
       -4   -1    0    0    0  501  0.00000000000E+00  0.00000000000E+00 -0.27648377188E+02  0.27648377188E+02  0.00000000000E+00 0.  1.
      -24    2    1    2    0    0  0.00000000000E+00  0.00000000000E+00  0.33060107331E+02  0.88356861706E+02  0.81938783942E+02 0.  0.
       11    1    3    3    0    0 -0.10721536890E+02  0.30970628878E+02  0.43039373081E+02  0.54097309005E+02  0.00000000000E+00 0. -1.
      -12    1    3    3    0    0  0.10721536890E+02 -0.30970628878E+02 -0.99792657497E+01  0.34259552701E+02  0.00000000000E+00 0.  1.
</event>
<event>
 5   0  0.2392100E+01  0.8053806E+02  0.7957747E-01  0.1326125E+00
        1   -1    0    0  501    0  0.00000000000E+00  0.00000000000E+00  0.45789927111E+02  0.45789927111E+02  0.00000000000E+00 0. -1.
       -2   -1    0    0    0  501  0.00000000000E+00  0.00000000000E+00 -0.35413788101E+02  0.35413788101E+02  0.00000000000E+00 0.  1.
      -24    2    1    2    0    0  0.00000000000E+00  0.00000000000E+00  0.10376139010E+02  0.81203715212E+02  0.80538059968E+02 0.  0.
       11    1    3    3    0    0  0.34118871551E+02  0.12275252652E+02  0.22848993456E+02  0.42858554870E+02  0.00000000000E+00 0. -1.
      -12    1    3    3    0    0 -0.34118871551E+02 -0.12275252652E+02 -0.12472854445E+02  0.38345160342E+02  0.00000000000E+00 0.  1.
</event>
<event>
 5   0  0.2392100E+01  0.5931987E+02  0.7957747E-01  0.1395157E+00
       -2   -1    0    0    0  501  0.00000000000E+00  0.00000000000E+00  0.50733128845E+01  0.50733128845E+01  0.00000000000E+00 0.  1.
        1   -1    0    0  501    0  0.00000000000E+00  0.00000000000E+00 -0.17339986859E+03  0.17339986859E+03  0.00000000000E+00 0. -1.
      -24    2    1    2    0    0  0.00000000000E+00  0.00000000000E+00 -0.16832655571E+03  0.17847318148E+03  0.59319871459E+02 0.  0.
       11    1    3    3    0    0  0.16418844138E+01  0.28566595319E+02 -0.10765502485E+03  0.11139277592E+03  0.00000000000E+00 0. -1.
      -12    1    3    3    0    0 -0.16418844138E+01 -0.28566595319E+02 -0.60671530856E+02  0.67080405551E+02  0.00000000000E+00 0.  1.
</event>
<event>
 5   0  0.2392100E+01  0.8025681E+02  0.7957747E-01  0.1326876E+00
        3   -1    0    0  501    0  0.00000000000E+00  0.00000000000E+00  0.25777926404E+03  0.25777926404E+03  0.00000000000E+00 0. -1.
       -4   -1    0    0    0  501  0.00000000000E+00  0.00000000000E+00 -0.62467739681E+01  0.62467739681E+01  0.00000000000E+00 0.  1.
      -24    2    1    2    0    0  0.00000000000E+00  0.00000000000E+00  0.25153249007E+03  0.26402603801E+03  0.80256807715E+02 0.  0.
       11    1    3    3    0    0 -0.38909998141E+02 -0.97956893070E+01  0.12383307261E+03  0.13017132310E+03  0.00000000000E+00 0. -1.
      -12    1    3    3    0    0  0.38909998141E+02  0.97956893070E+01  0.12769941746E+03  0.13385471491E+03  0.00000000000E+00 0.  1.
</event>
<event>
 5   0  0.2392100E+01  0.6491718E+02  0.7957747E-01  0.1374065E+00
        3   -1    0    0  501    0  0.00000000000E+00  0.00000000000E+00  0.93688329526E+02  0.93688329526E+02  0.00000000000E+00 0. -1.
       -4   -1    0    0    0  501  0.00000000000E+00  0.00000000000E+00 -0.11245372967E+02  0.11245372967E+02  0.00000000000E+00 0.  1.
      -24    2    1    2    0    0  0.00000000000E+00  0.00000000000E+00  0.82442956559E+02  0.10493370249E+03  0.64917184419E+02 0.  0.
       11    1    3    3    0    0 -0.19400518670E+01 -0.15093418746E+02  0.87564814883E+02  0.88877285603E+02  0.00000000000E+00 0. -1.
      -12    1    3    3    0    0  0.19400518670E+01  0.15093418746E+02 -0.51218583241E+01  0.16056416891E+02  0.00000000000E+00 0.  1.
</event>
<event>
 5   0  0.2392100E+01  0.8144509E+02  0.7957747E-01  0.1323726E+00
       -4   -1    0    0    0  501  0.00000000000E+00  0.00000000000E+00  0.39866112936E+02  0.39866112936E+02  0.00000000000E+00 0.  1.
        3   -1    0    0  501    0  0.00000000000E+00  0.00000000000E+00 -0.41597371213E+02  0.41597371213E+02  0.00000000000E+00 0. -1.
      -24    2    1    2    0    0  0.00000000000E+00  0.00000000000E+00 -0.17312582763E+01  0.81463484149E+02  0.81445085760E+02 0.  0.
       11    1    3    3    0    0  0.12175366559E+02 -0.24811005953E+02 -0.30780577089E+02  0.41367493194E+02  0.00000000000E+00 0. -1.
      -12    1    3    3    0    0 -0.12175366559E+02  0.24811005953E+02  0.29049318812E+02  0.40095990955E+02  0.00000000000E+00 0.  1.
</event>
<event>
 5   0  0.2392100E+01  0.8492569E+02  0.7957747E-01  0.1314839E+00
       -4   -1    0    0    0  501  0.00000000000E+00  0.00000000000E+00  0.10895774524E+03  0.10895774524E+03  0.00000000000E+00 0.  1.
        3   -1    0    0  501    0  0.00000000000E+00  0.00000000000E+00 -0.16548555562E+02  0.16548555562E+02  0.00000000000E+00 0. -1.
      -24    2    1    2    0    0  0.00000000000E+00  0.00000000000E+00  0.92409189682E+02  0.12550630081E+03  0.84925692250E+02 0.  0.
       11    1    3    3    0    0 -0.11756497028E+02  0.38140823114E+02  0.24780769892E+02  0.46978975794E+02  0.00000000000E+00 0. -1.
      -12    1    3    3    0    0  0.11756497028E+02 -0.38140823114E+02  0.67628419791E+02  0.78527325012E+02  0.00000000000E+00 0.  1.
</event>
<event>
 5   0  0.2392100E+01  0.8098832E+02  0.7957747E-01  0.1324930E+00
        3   -1    0    0  501    0  0.00000000000E+00  0.00000000000E+00  0.16166936238E+02  0.16166936238E+02  0.00000000000E+00 0. -1.
       -4   -1    0    0    0  501  0.00000000000E+00  0.00000000000E+00 -0.10142781467E+03  0.10142781467E+03  0.00000000000E+00 0.  1.
      -24    2    1    2    0    0  0.00000000000E+00  0.00000000000E+00 -0.85260878430E+02  0.11759475091E+03  0.80988320455E+02 0.  0.
       11    1    3    3    0    0 -0.33469706486E+02  0.14555012262E+01 -0.96015171637E+01  0.34850091361E+02  0.00000000000E+00 0. -1.
      -12    1    3    3    0    0  0.33469706486E+02 -0.14555012262E+01 -0.75659361266E+02  0.82744659545E+02  0.00000000000E+00 0.  1.
</event>
<event>
 5   0  0.2392100E+01  0.9154116E+02  0.7957747E-01  0.1299203E+00
       -4   -1    0    0    0  501  0.00000000000E+00  0.00000000000E+00  0.37559487339E+02  0.37559487339E+02  0.00000000000E+00 0.  1.
        3   -1    0    0  501    0  0.00000000000E+00  0.00000000000E+00 -0.55776751692E+02  0.55776751692E+02  0.00000000000E+00 0. -1.
      -24    2    1    2    0    0  0.00000000000E+00  0.00000000000E+00 -0.18217264353E+02  0.93336239031E+02  0.91541164488E+02 0.  0.
       11    1    3    3    0    0 -0.25811041341E+02  0.25897724433E+02 -0.37181134901E+02  0.52147279684E+02  0.00000000000E+00 0. -1.
      -12    1    3    3    0    0  0.25811041341E+02 -0.25897724433E+02  0.18963870548E+02  0.41188959347E+02  0.00000000000E+00 0.  1.
</event>
<event>
 5   0  0.2392100E+01  0.8296330E+02  0.7957747E-01  0.1319789E+00
       -2   -1    0    0    0  501  0.00000000000E+00  0.00000000000E+00  0.29838511673E+02  0.29838511673E+02  0.00000000000E+00 0.  1.
        1   -1    0    0  501    0  0.00000000000E+00  0.00000000000E+00 -0.57667996025E+02  0.57667996025E+02  0.00000000000E+00 0. -1.
      -24    2    1    2    0    0  0.00000000000E+00  0.00000000000E+00 -0.27829484352E+02  0.87506507699E+02  0.82963297248E+02 0.  0.
       11    1    3    3    0    0 -0.11815891859E+02 -0.57305796376E+01 -0.55417602033E+02  0.56952308632E+02  0.00000000000E+00 0. -1.
      -12    1    3    3    0    0  0.11815891859E+02  0.57305796376E+01  0.27588117681E+02  0.30554199067E+02  0.00000000000E+00 0.  1.
</event>
<event>
 5   0  0.2392100E+01  0.8006564E+02  0.7957747E-01  0.1327388E+00
        1   -1    0    0  501    0  0.00000000000E+00  0.00000000000E+00  0.10052042919E+03  0.10052042919E+03  0.00000000000E+00 0. -1.
       -2   -1    0    0    0  501  0.00000000000E+00  0.00000000000E+00 -0.15943291359E+02  0.15943291359E+02  0.00000000000E+00 0.  1.
      -24    2    1    2    0    0  0.00000000000E+00  0.00000000000E+00  0.84577137834E+02  0.11646372055E+03  0.80065635328E+02 0.  0.
       11    1    3    3    0    0 -0.86970999361E+01  0.17780021331E+02  0.92904948094E+02  0.94989989400E+02  0.00000000000E+00 0. -1.
      -12    1    3    3    0    0  0.86970999361E+01 -0.17780021331E+02 -0.83278102606E+01  0.21473731151E+02  0.00000000000E+00 0.  1.
</event>
<event>
 5   0  0.2392100E+01  0.7895717E+02  0.7957747E-01  0.1330392E+00
       -2   -1    0    0    0  501  0.00000000000E+00  0.00000000000E+00  0.66350399449E+02  0.66350399449E+02  0.00000000000E+00 0.  1.
        1   -1    0    0  501    0  0.00000000000E+00  0.00000000000E+00 -0.23489813995E+02  0.23489813995E+02  0.00000000000E+00 0. -1.
      -24    2    1    2    0    0  0.00000000000E+00  0.00000000000E+00  0.42860585455E+02  0.89840213444E+02  0.78957166655E+02 0.  0.
       11    1    3    3    0    0 -0.48682017862E+01  0.21547641779E+02 -0.15798965082E+02  0.27158931358E+02  0.00000000000E+00 0. -1.
      -12    1    3    3    0    0  0.48682017862E+01 -0.21547641779E+02  0.58659550536E+02  0.62681282086E+02  0.00000000000E+00 0.  1.
</event>
<event>
 5   0  0.2392100E+01  0.7814609E+02  0.7957747E-01  0.1332626E+00
       -4   -1    0    0    0  501  0.00000000000E+00  0.00000000000E+00  0.11922070523E+03  0.11922070523E+03  0.00000000000E+00 0.  1.
        3   -1    0    0  501    0  0.00000000000E+00  0.00000000000E+00 -0.12805686292E+02  0.12805686292E+02  0.00000000000E+00 0. -1.
      -24    2    1    2    0    0  0.00000000000E+00  0.00000000000E+00  0.10641501893E+03  0.13202639152E+03  0.78146092691E+02 0.  0.
       11    1    3    3    0    0 -0.75710745554E+01  0.37619465457E+02  0.40774301770E+02  0.55991865802E+02  0.00000000000E+00 0. -1.
      -12    1    3    3    0    0  0.75710745554E+01 -0.37619465457E+02  0.65640717165E+02  0.76034525717E+02  0.00000000000E+00 0.  1.
</event>
<event>
 5   0  0.2392100E+01  0.8116468E+02  0.7957747E-01  0.1324464E+00
       -2   -1    0    0    0  501  0.00000000000E+00  0.00000000000E+00  0.44940820585E+02  0.44940820585E+02  0.00000000000E+00 0.  1.
        1   -1    0    0  501    0  0.00000000000E+00  0.00000000000E+00 -0.36646557432E+02  0.36646557432E+02  0.00000000000E+00 0. -1.
      -24    2    1    2    0    0  0.00000000000E+00  0.00000000000E+00  0.82942631530E+01  0.81587378017E+02  0.81164681053E+02 0.  0.
       11    1    3    3    0    0  0.14197084704E+02  0.32196592929E+02 -0.16175689974E+02  0.38727648476E+02  0.00000000000E+00 0. -1.
      -12    1    3    3    0    0 -0.14197084704E+02 -0.32196592929E+02  0.24469953127E+02  0.42859729541E+02  0.00000000000E+00 0.  1.
</event>
<event>
 5   0  0.2392100E+01  0.7979715E+02  0.7957747E-01  0.1328111E+00
        1   -1    0    0  501    0  0.00000000000E+00  0.00000000000E+00  0.13373520750E+02  0.13373520750E+02  0.00000000000E+00 0. -1.
       -2   -1    0    0    0  501  0.00000000000E+00  0.00000000000E+00 -0.11903345939E+03  0.11903345939E+03  0.00000000000E+00 0.  1.
      -24    2    1    2    0    0  0.00000000000E+00  0.00000000000E+00 -0.10565993864E+03  0.13240698014E+03  0.79797153812E+02 0.  0.
       11    1    3    3    0    0  0.25465170217E+01  0.21644017151E+02  0.26249397893E+01  0.21950820856E+02  0.00000000000E+00 0. -1.
      -12    1    3    3    0    0 -0.25465170217E+01 -0.21644017151E+02 -0.10828487843E+03  0.11045615928E+03  0.00000000000E+00 0.  1.
</event>
<event>
 5   0  0.2392100E+01  0.7938497E+02  0.7957747E-01  0.1329227E+00
        1   -1    0    0  501    0  0.00000000000E+00  0.00000000000E+00  0.60776088563E+03  0.60776088563E+03  0.00000000000E+00 0. -1.
       -2   -1    0    0    0  501  0.00000000000E+00  0.00000000000E+00 -0.25922913961E+01  0.25922913961E+01  0.00000000000E+00 0.  1.
      -24    2    1    2    0    0  0.00000000000E+00  0.00000000000E+00  0.60516859423E+03  0.61035317702E+03  0.79384968720E+02 0.  0.
       11    1    3    3    0    0  0.29388616041E+02  0.70657782333E+01  0.10478183737E+03  0.10905434158E+03  0.00000000000E+00 0. -1.
      -12    1    3    3    0    0 -0.29388616041E+02 -0.70657782333E+01  0.50038675686E+03  0.50129883544E+03  0.00000000000E+00 0.  1.
</event>
<event>
 5   0  0.2392100E+01  0.9076459E+02  0.7957747E-01  0.1300960E+00
        1   -1    0    0  501    0  0.00000000000E+00  0.00000000000E+00  0.35720709721E+02  0.35720709721E+02  0.00000000000E+00 0. -1.
       -2   -1    0    0    0  501  0.00000000000E+00  0.00000000000E+00 -0.57657108214E+02  0.57657108214E+02  0.00000000000E+00 0.  1.
      -24    2    1    2    0    0  0.00000000000E+00  0.00000000000E+00 -0.21936398493E+02  0.93377817936E+02  0.90764592786E+02 0.  0.
       11    1    3    3    0    0 -0.91039609190E+01  0.54101380999E+01  0.34431708050E+02  0.36023523119E+02  0.00000000000E+00 0. -1.
      -12    1    3    3    0    0  0.91039609190E+01 -0.54101380999E+01 -0.56368106543E+02  0.57354294817E+02  0.00000000000E+00 0.  1.
</event>
<event>
 5   0  0.2392100E+01  0.7816696E+02  0.7957747E-01  0.1332568E+00
        1   -1    0    0  501    0  0.00000000000E+00  0.00000000000E+00  0.19241400033E+03  0.19241400033E+03  0.00000000000E+00 0. -1.
       -2   -1    0    0    0  501  0.00000000000E+00  0.00000000000E+00 -0.79387076562E+01  0.79387076562E+01  0.00000000000E+00 0.  1.
      -24    2    1    2    0    0  0.00000000000E+00  0.00000000000E+00  0.18447529268E+03  0.20035270799E+03  0.78166962269E+02 0.  0.
       11    1    3    3    0    0  0.52148231868E+00  0.28043403125E+02  0.16200087963E+03  0.16441103796E+03  0.00000000000E+00 0. -1.
      -12    1    3    3    0    0 -0.52148231868E+00 -0.28043403125E+02  0.22474413048E+02  0.35941670029E+02  0.00000000000E+00 0.  1.
</event>
<event>
 5   0  0.2392100E+01  0.7218285E+02  0.7957747E-01  0.1350052E+00
       -2   -1    0    0    0  501  0.00000000000E+00  0.00000000000E+00  0.11975369995E+02  0.11975369995E+02  0.00000000000E+00 0.  1.
        1   -1    0    0  501    0  0.00000000000E+00  0.00000000000E+00 -0.10877249210E+03  0.10877249210E+03  0.00000000000E+00 0. -1.
      -24    2    1    2    0    0  0.00000000000E+00  0.00000000000E+00 -0.96797122102E+02  0.12074786209E+03  0.72182846664E+02 0.  0.
       11    1    3    3    0    0  0.20538836917E+02 -0.29177300564E+02 -0.57473765632E+02  0.67649038619E+02  0.00000000000E+00 0. -1.
      -12    1    3    3    0    0 -0.20538836917E+02  0.29177300564E+02 -0.39323356469E+02  0.53098823472E+02  0.00000000000E+00 0.  1.
</event>
<event>
 5   0  0.2392100E+01  0.7083563E+02  0.7957747E-01  0.1354255E+00
        3   -1    0    0  501    0  0.00000000000E+00  0.00000000000E+00  0.15749026347E+03  0.15749026347E+03  0.00000000000E+00 0. -1.
       -4   -1    0    0    0  501  0.00000000000E+00  0.00000000000E+00 -0.79650735338E+01  0.79650735338E+01  0.00000000000E+00 0.  1.
      -24    2    1    2    0    0  0.00000000000E+00  0.00000000000E+00  0.14952518994E+03  0.16545533701E+03  0.70835627460E+02 0.  0.
       11    1    3    3    0    0 -0.43258276524E+01 -0.31569942766E+02  0.11087622133E+03  0.11536425152E+03  0.00000000000E+00 0. -1.
      -12    1    3    3    0    0  0.43258276524E+01  0.31569942766E+02  0.38648968605E+02  0.50091085488E+02  0.00000000000E+00 0.  1.
</event>
<event>
 5   0  0.2392100E+01  0.8093684E+02  0.7957747E-01  0.1325066E+00
       -2   -1    0    0    0  501  0.00000000000E+00  0.00000000000E+00  0.47540458145E+03  0.47540458145E+03  0.00000000000E+00 0.  1.
        1   -1    0    0  501    0  0.00000000000E+00  0.00000000000E+00 -0.34448403487E+01  0.34448403487E+01  0.00000000000E+00 0. -1.
      -24    2    1    2    0    0  0.00000000000E+00  0.00000000000E+00  0.47195974110E+03  0.47884942180E+03  0.80936836710E+02 0.  0.
       11    1    3    3    0    0 -0.28006967491E+02 -0.38937499026E+01  0.64698007206E+02  0.70607249294E+02  0.00000000000E+00 0. -1.
      -12    1    3    3    0    0  0.28006967491E+02  0.38937499026E+01  0.40726173390E+03  0.40824217251E+03  0.00000000000E+00 0.  1.
</event>
<event>
 5   0  0.2392100E+01  0.7900210E+02  0.7957747E-01  0.1330270E+00
        1   -1    0    0  501    0  0.00000000000E+00  0.00000000000E+00  0.18879510708E+03  0.18879510708E+03  0.00000000000E+00 0. -1.
       -2   -1    0    0    0  501  0.00000000000E+00  0.00000000000E+00 -0.82646888982E+01  0.82646888982E+01  0.00000000000E+00 0.  1.
      -24    2    1    2    0    0  0.00000000000E+00  0.00000000000E+00  0.18053041818E+03  0.19705979598E+03  0.79002096821E+02 0.  0.
       11    1    3    3    0    0 -0.29899079047E+02  0.18178220673E+02  0.13598286229E+03  0.14041275395E+03  0.00000000000E+00 0. -1.
      -12    1    3    3    0    0  0.29899079047E+02 -0.18178220673E+02  0.44547555888E+02  0.56647042026E+02  0.00000000000E+00 0.  1.
</event>
<event>
 5   0  0.2392100E+01  0.7963990E+02  0.7957747E-01  0.1328536E+00
       -2   -1    0    0    0  501  0.00000000000E+00  0.00000000000E+00  0.27361026920E+02  0.27361026920E+02  0.00000000000E+00 0.  1.
        1   -1    0    0  501    0  0.00000000000E+00  0.00000000000E+00 -0.57952082528E+02  0.57952082528E+02  0.00000000000E+00 0. -1.
      -24    2    1    2    0    0  0.00000000000E+00  0.00000000000E+00 -0.30591055607E+02  0.85313109448E+02  0.79639901811E+02 0.  0.
       11    1    3    3    0    0  0.39015529307E+02  0.70404084164E+01 -0.11308916774E+02  0.41227060002E+02  0.00000000000E+00 0. -1.
      -12    1    3    3    0    0 -0.39015529307E+02 -0.70404084164E+01 -0.19282138833E+02  0.44086049446E+02  0.00000000000E+00 0.  1.
</event>
<event>
 5   0  0.2392100E+01  0.8043762E+02  0.7957747E-01  0.1326393E+00
        1   -1    0    0  501    0  0.00000000000E+00  0.00000000000E+00  0.56179358555E+02  0.56179358555E+02  0.00000000000E+00 0. -1.
       -2   -1    0    0    0  501  0.00000000000E+00  0.00000000000E+00 -0.28792653196E+02  0.28792653196E+02  0.00000000000E+00 0.  1.
      -24    2    1    2    0    0  0.00000000000E+00  0.00000000000E+00  0.27386705359E+02  0.84972011751E+02  0.80437622730E+02 0.  0.
       11    1    3    3    0    0  0.26936181779E+01 -0.14354756716E+02  0.53278937033E+02  0.55244544985E+02  0.00000000000E+00 0. -1.
      -12    1    3    3    0    0 -0.26936181779E+01  0.14354756716E+02 -0.25892231673E+02  0.29727466766E+02  0.00000000000E+00 0.  1.
</event>
<event>
 5   0  0.2392100E+01  0.7934983E+02  0.7957747E-01  0.1329322E+00
       -2   -1    0    0    0  501  0.00000000000E+00  0.00000000000E+00  0.48588349831E+03  0.48588349831E+03  0.00000000000E+00 0.  1.
        1   -1    0    0  501    0  0.00000000000E+00  0.00000000000E+00 -0.32396634588E+01  0.32396634588E+01  0.00000000000E+00 0. -1.
      -24    2    1    2    0    0  0.00000000000E+00  0.00000000000E+00  0.48264383485E+03  0.48912316177E+03  0.79349833389E+02 0.  0.
       11    1    3    3    0    0  0.21311377152E+02  0.11061652694E+02  0.46632383160E+02  0.52451064009E+02  0.00000000000E+00 0. -1.
      -12    1    3    3    0    0 -0.21311377152E+02 -0.11061652694E+02  0.43601145169E+03  0.43667209776E+03  0.00000000000E+00 0.  1.
</event>
<event>
 5   0  0.2392100E+01  0.7927933E+02  0.7957747E-01  0.1329514E+00
       -2   -1    0    0    0  501  0.00000000000E+00  0.00000000000E+00  0.69200313998E+03  0.69200313998E+03  0.00000000000E+00 0.  1.
        1   -1    0    0  501    0  0.00000000000E+00  0.00000000000E+00 -0.22706586480E+01  0.22706586480E+01  0.00000000000E+00 0. -1.
      -24    2    1    2    0    0  0.00000000000E+00  0.00000000000E+00  0.68973248133E+03  0.69427379863E+03  0.79279326795E+02 0.  0.
       11    1    3    3    0    0  0.13515535287E+01 -0.19559234618E+02  0.43162854513E+02  0.47406986463E+02  0.00000000000E+00 0. -1.
      -12    1    3    3    0    0 -0.13515535287E+01  0.19559234618E+02  0.64656962682E+03  0.64686681216E+03  0.00000000000E+00 0.  1.
</event>
<event>
 5   0  0.2392100E+01  0.7994471E+02  0.7957747E-01  0.1327713E+00
        1   -1    0    0  501    0  0.00000000000E+00  0.00000000000E+00  0.26890195069E+03  0.26890195069E+03  0.00000000000E+00 0. -1.
       -2   -1    0    0    0  501  0.00000000000E+00  0.00000000000E+00 -0.59419018616E+01  0.59419018616E+01  0.00000000000E+00 0.  1.
      -24    2    1    2    0    0  0.00000000000E+00  0.00000000000E+00  0.26296004883E+03  0.27484385255E+03  0.79944705926E+02 0.  0.
       11    1    3    3    0    0 -0.26924658899E+02 -0.27659098408E+02  0.16717919330E+03  0.17157752083E+03  0.00000000000E+00 0. -1.
      -12    1    3    3    0    0  0.26924658899E+02  0.27659098408E+02  0.95780855529E+02  0.10326633172E+03  0.00000000000E+00 0.  1.
</event>
<event>
 5   0  0.2392100E+01  0.8249356E+02  0.7957747E-01  0.1320997E+00
        1   -1    0    0  501    0  0.00000000000E+00  0.00000000000E+00  0.68525812071E+02  0.68525812071E+02  0.00000000000E+00 0. -1.
       -2   -1    0    0    0  501  0.00000000000E+00  0.00000000000E+00 -0.24827095157E+02  0.24827095157E+02  0.00000000000E+00 0.  1.
      -24    2    1    2    0    0  0.00000000000E+00  0.00000000000E+00  0.43698716914E+02  0.93352907229E+02  0.82493559919E+02 0.  0.
       11    1    3    3    0    0 -0.20115120179E+02 -0.35734296567E+02  0.26877050657E+02  0.49029928238E+02  0.00000000000E+00 0. -1.
      -12    1    3    3    0    0  0.20115120179E+02  0.35734296567E+02  0.16821666257E+02  0.44322978991E+02  0.00000000000E+00 0.  1.
</event>
<event>
 5   0  0.2392100E+01  0.7527861E+02  0.7957747E-01  0.1340777E+00
       -4   -1    0    0    0  501  0.00000000000E+00  0.00000000000E+00  0.97348114775E+02  0.97348114775E+02  0.00000000000E+00 0.  1.
        3   -1    0    0  501    0  0.00000000000E+00  0.00000000000E+00 -0.14553102601E+02  0.14553102601E+02  0.00000000000E+00 0. -1.
      -24    2    1    2    0    0  0.00000000000E+00  0.00000000000E+00  0.82795012174E+02  0.11190121738E+03  0.75278605256E+02 0.  0.
       11    1    3    3    0    0 -0.34247318811E+01  0.30435498538E+02  0.88752412837E+01  0.31887587986E+02  0.00000000000E+00 0. -1.
      -12    1    3    3    0    0  0.34247318811E+01 -0.30435498538E+02  0.73919770890E+02  0.80013629390E+02  0.00000000000E+00 0.  1.
</event>
<event>
 5   0  0.2392100E+01  0.8208843E+02  0.7957747E-01  0.1322046E+00
       -2   -1    0    0    0  501  0.00000000000E+00  0.00000000000E+00  0.91869511235E+02  0.91869511235E+02  0.00000000000E+00 0.  1.
        1   -1    0    0  501    0  0.00000000000E+00  0.00000000000E+00 -0.18337179301E+02  0.18337179301E+02  0.00000000000E+00 0. -1.
      -24    2    1    2    0    0  0.00000000000E+00  0.00000000000E+00  0.73532331935E+02  0.11020669054E+03  0.82088432797E+02 0.  0.
       11    1    3    3    0    0  0.22621946970E+02 -0.64674979446E+00 -0.92038278636E+01  0.24431152600E+02  0.00000000000E+00 0. -1.
      -12    1    3    3    0    0 -0.22621946970E+02  0.64674979446E+00  0.82736159798E+02  0.85775537936E+02  0.00000000000E+00 0.  1.
</event>
<event>
 5   0  0.2392100E+01  0.7962700E+02  0.7957747E-01  0.1328571E+00
       -2   -1    0    0    0  501  0.00000000000E+00  0.00000000000E+00  0.58582397621E+01  0.58582397621E+01  0.00000000000E+00 0.  1.
        1   -1    0    0  501    0  0.00000000000E+00  0.00000000000E+00 -0.27057870593E+03  0.27057870593E+03  0.00000000000E+00 0. -1.
      -24    2    1    2    0    0  0.00000000000E+00  0.00000000000E+00 -0.26472046617E+03  0.27643694569E+03  0.79627003808E+02 0.  0.
       11    1    3    3    0    0  0.33703022601E+02 -0.18942364615E+02 -0.16536975242E+03  0.16982891958E+03  0.00000000000E+00 0. -1.
      -12    1    3    3    0    0 -0.33703022601E+02  0.18942364615E+02 -0.99350713751E+02  0.10660802612E+03  0.00000000000E+00 0.  1.
</event>
<event>
 5   0  0.2392100E+01  0.8108204E+02  0.7957747E-01  0.1324682E+00
        1   -1    0    0  501    0  0.00000000000E+00  0.00000000000E+00  0.70440171825E+02  0.70440171825E+02  0.00000000000E+00 0. -1.
       -2   -1    0    0    0  501  0.00000000000E+00  0.00000000000E+00 -0.23332914304E+02  0.23332914304E+02  0.00000000000E+00 0.  1.
      -24    2    1    2    0    0  0.00000000000E+00  0.00000000000E+00  0.47107257520E+02  0.93773086129E+02  0.81082044690E+02 0.  0.
       11    1    3    3    0    0  0.19910410309E+02  0.75652200754E+01  0.63448029225E+02  0.66927643064E+02  0.00000000000E+00 0. -1.
      -12    1    3    3    0    0 -0.19910410309E+02 -0.75652200754E+01 -0.16340771705E+02  0.26845443066E+02  0.00000000000E+00 0.  1.
</event>
<event>
 5   0  0.2392100E+01  0.8138334E+02  0.7957747E-01  0.1323888E+00
        1   -1    0    0  501    0  0.00000000000E+00  0.00000000000E+00  0.21987653269E+02  0.21987653269E+02  0.00000000000E+00 0. -1.
       -2   -1    0    0    0  501  0.00000000000E+00  0.00000000000E+00 -0.75306436473E+02  0.75306436473E+02  0.00000000000E+00 0.  1.
      -24    2    1    2    0    0  0.00000000000E+00  0.00000000000E+00 -0.53318783204E+02  0.97294089742E+02  0.81383335249E+02 0.  0.
       11    1    3    3    0    0 -0.25429359064E+02  0.93584512927E+00  0.11302019666E+02  0.27843558627E+02  0.00000000000E+00 0. -1.
      -12    1    3    3    0    0  0.25429359064E+02 -0.93584512927E+00 -0.64620802870E+02  0.69450531114E+02  0.00000000000E+00 0.  1.
</event>
<event>
 5   0  0.2392100E+01  0.7919869E+02  0.7957747E-01  0.1329733E+00
       -4   -1    0    0    0  501  0.00000000000E+00  0.00000000000E+00  0.12275081447E+02  0.12275081447E+02  0.00000000000E+00 0.  1.
        3   -1    0    0  501    0  0.00000000000E+00  0.00000000000E+00 -0.12774727252E+03  0.12774727252E+03  0.00000000000E+00 0. -1.
      -24    2    1    2    0    0  0.00000000000E+00  0.00000000000E+00 -0.11547219107E+03  0.14002235396E+03  0.79198691270E+02 0.  0.
       11    1    3    3    0    0 -0.21633982264E+02 -0.15410185461E+02 -0.10966215876E+03  0.11283302738E+03  0.00000000000E+00 0. -1.
      -12    1    3    3    0    0  0.21633982264E+02  0.15410185461E+02 -0.58100323118E+01  0.27189326582E+02  0.00000000000E+00 0.  1.
</event>
<event>
 5   0  0.2392100E+01  0.8151736E+02  0.7957747E-01  0.1323536E+00
        1   -1    0    0  501    0  0.00000000000E+00  0.00000000000E+00  0.44595316461E+01  0.44595316461E+01  0.00000000000E+00 0. -1.
       -2   -1    0    0    0  501  0.00000000000E+00  0.00000000000E+00 -0.37252115506E+03  0.37252115506E+03  0.00000000000E+00 0.  1.
      -24    2    1    2    0    0  0.00000000000E+00  0.00000000000E+00 -0.36806162342E+03  0.37698068671E+03  0.81517357166E+02 0.  0.
       11    1    3    3    0    0  0.47931673240E+01 -0.28775892357E+02 -0.52394176286E+02  0.59968126055E+02  0.00000000000E+00 0. -1.
      -12    1    3    3    0    0 -0.47931673240E+01  0.28775892357E+02 -0.31566744713E+03  0.31701256065E+03  0.00000000000E+00 0.  1.
</event>
<event>
 5   0  0.2392100E+01  0.8041449E+02  0.7957747E-01  0.1326454E+00
        1   -1    0    0  501    0  0.00000000000E+00  0.00000000000E+00  0.12080237002E+03  0.12080237002E+03  0.00000000000E+00 0. -1.
       -2   -1    0    0    0  501  0.00000000000E+00  0.00000000000E+00 -0.13382372800E+02  0.13382372800E+02  0.00000000000E+00 0.  1.
      -24    2    1    2    0    0  0.00000000000E+00  0.00000000000E+00  0.10741999722E+03  0.13418474282E+03  0.80414485032E+02 0.  0.
       11    1    3    3    0    0  0.38570316827E+02  0.53867047173E+01  0.70391331656E+02  0.80446413842E+02  0.00000000000E+00 0. -1.
      -12    1    3    3    0    0 -0.38570316827E+02 -0.53867047173E+01  0.37028665565E+02  0.53738328978E+02  0.00000000000E+00 0.  1.
</event>
<event>
 5   0  0.2392100E+01  0.8115494E+02  0.7957747E-01  0.1324490E+00
        1   -1    0    0  501    0  0.00000000000E+00  0.00000000000E+00  0.95210336473E+02  0.95210336473E+02  0.00000000000E+00 0. -1.
       -2   -1    0    0    0  501  0.00000000000E+00  0.00000000000E+00 -0.17293615701E+02  0.17293615701E+02  0.00000000000E+00 0.  1.
      -24    2    1    2    0    0  0.00000000000E+00  0.00000000000E+00  0.77916720772E+02  0.11250395217E+03  0.81154937490E+02 0.  0.
       11    1    3    3    0    0  0.33157165181E+02 -0.16803726062E+02  0.61515587284E+02  0.71874406372E+02  0.00000000000E+00 0. -1.
      -12    1    3    3    0    0 -0.33157165181E+02  0.16803726062E+02  0.16401133488E+02  0.40629545802E+02  0.00000000000E+00 0.  1.
</event>
<event>
 5   0  0.2392100E+01  0.8050075E+02  0.7957747E-01  0.1326224E+00
       -4   -1    0    0    0  501  0.00000000000E+00  0.00000000000E+00  0.14800214639E+03  0.14800214639E+03  0.00000000000E+00 0.  1.
        3   -1    0    0  501    0  0.00000000000E+00  0.00000000000E+00 -0.10946413301E+02  0.10946413301E+02  0.00000000000E+00 0. -1.
      -24    2    1    2    0    0  0.00000000000E+00  0.00000000000E+00  0.13705573309E+03  0.15894855969E+03  0.80500749408E+02 0.  0.
       11    1    3    3    0    0 -0.82347247290E+00 -0.23536293036E+02  0.40775978555E+01  0.23901087863E+02  0.00000000000E+00 0. -1.
      -12    1    3    3    0    0  0.82347247290E+00  0.23536293036E+02  0.13297813523E+03  0.13504747183E+03  0.00000000000E+00 0.  1.
</event>
<event>
 5   0  0.2392100E+01  0.8100473E+02  0.7957747E-01  0.1324886E+00
        1   -1    0    0  501    0  0.00000000000E+00  0.00000000000E+00  0.12569653602E+02  0.12569653602E+02  0.00000000000E+00 0. -1.
       -2   -1    0    0    0  501  0.00000000000E+00  0.00000000000E+00 -0.13050808999E+03  0.13050808999E+03  0.00000000000E+00 0.  1.
      -24    2    1    2    0    0  0.00000000000E+00  0.00000000000E+00 -0.11793843639E+03  0.14307774359E+03  0.81004727848E+02 0.  0.
       11    1    3    3    0    0  0.30268557234E+02 -0.14512013978E+02 -0.18938030087E+02  0.38541316666E+02  0.00000000000E+00 0. -1.
      -12    1    3    3    0    0 -0.30268557234E+02  0.14512013978E+02 -0.99000406302E+02  0.10453642693E+03  0.00000000000E+00 0.  1.
</event>
<event>
 5   0  0.2392100E+01  0.8093141E+02  0.7957747E-01  0.1325080E+00
        1   -1    0    0  501    0  0.00000000000E+00  0.00000000000E+00  0.37627450771E+02  0.37627450771E+02  0.00000000000E+00 0. -1.
       -2   -1    0    0    0  501  0.00000000000E+00  0.00000000000E+00 -0.43518050401E+02  0.43518050401E+02  0.00000000000E+00 0.  1.
      -24    2    1    2    0    0  0.00000000000E+00  0.00000000000E+00 -0.58905996306E+01  0.81145501172E+02  0.80931410444E+02 0.  0.
       11    1    3    3    0    0 -0.17155352040E+01  0.12688134897E+02  0.35542981588E+02  0.37778768752E+02  0.00000000000E+00 0. -1.
      -12    1    3    3    0    0  0.17155352040E+01 -0.12688134897E+02 -0.41433581219E+02  0.43366732420E+02  0.00000000000E+00 0.  1.
</event>
<event>
 5   0  0.2392100E+01  0.7882394E+02  0.7957747E-01  0.1330757E+00
        1   -1    0    0  501    0  0.00000000000E+00  0.00000000000E+00  0.99883499992E+02  0.99883499992E+02  0.00000000000E+00 0. -1.
       -2   -1    0    0    0  501  0.00000000000E+00  0.00000000000E+00 -0.15551151237E+02  0.15551151237E+02  0.00000000000E+00 0.  1.
      -24    2    1    2    0    0  0.00000000000E+00  0.00000000000E+00  0.84332348755E+02  0.11543465123E+03  0.78823940893E+02 0.  0.
       11    1    3    3    0    0 -0.29093490654E+02 -0.20170751946E+02  0.67531945813E+02  0.76248633679E+02  0.00000000000E+00 0. -1.
      -12    1    3    3    0    0  0.29093490654E+02  0.20170751946E+02  0.16800402942E+02  0.39186017551E+02  0.00000000000E+00 0.  1.
</event>
<event>
 5   0  0.2392100E+01  0.7328136E+02  0.7957747E-01  0.1346701E+00
       -2   -1    0    0    0  501  0.00000000000E+00  0.00000000000E+00  0.45297348106E+01  0.45297348106E+01  0.00000000000E+00 0.  1.
        1   -1    0    0  501    0  0.00000000000E+00  0.00000000000E+00 -0.29638363635E+03  0.29638363635E+03  0.00000000000E+00 0. -1.
      -24    2    1    2    0    0  0.00000000000E+00  0.00000000000E+00 -0.29185390154E+03  0.30091337116E+03  0.73281355742E+02 0.  0.
       11    1    3    3    0    0 -0.22696896793E+02  0.28196438855E+02 -0.16928258990E+03  0.17310916651E+03  0.00000000000E+00 0. -1.
      -12    1    3    3    0    0  0.22696896793E+02 -0.28196438855E+02 -0.12257131164E+03  0.12780420464E+03  0.00000000000E+00 0.  1.
</event>
<event>
 5   0  0.2392100E+01  0.8106533E+02  0.7957747E-01  0.1324726E+00
       -2   -1    0    0    0  501  0.00000000000E+00  0.00000000000E+00  0.28761629874E+03  0.28761629874E+03  0.00000000000E+00 0.  1.
        1   -1    0    0  501    0  0.00000000000E+00  0.00000000000E+00 -0.57121133971E+01  0.57121133971E+01  0.00000000000E+00 0. -1.
      -24    2    1    2    0    0  0.00000000000E+00  0.00000000000E+00  0.28190418534E+03  0.29332841213E+03  0.81065329537E+02 0.  0.
       11    1    3    3    0    0 -0.33291950958E+02  0.12962197776E+02  0.71678072607E+02  0.80088193028E+02  0.00000000000E+00 0. -1.
      -12    1    3    3    0    0  0.33291950958E+02 -0.12962197776E+02  0.21022611273E+03  0.21324021911E+03  0.00000000000E+00 0.  1.
</event>
<event>
 5   0  0.2392100E+01  0.8084186E+02  0.7957747E-01  0.1325317E+00
       -4   -1    0    0    0  501  0.00000000000E+00  0.00000000000E+00  0.11725072212E+02  0.11725072212E+02  0.00000000000E+00 0.  1.
        3   -1    0    0  501    0  0.00000000000E+00  0.00000000000E+00 -0.13934681118E+03  0.13934681118E+03  0.00000000000E+00 0. -1.
      -24    2    1    2    0    0  0.00000000000E+00  0.00000000000E+00 -0.12762173897E+03  0.15107188339E+03  0.80841856080E+02 0.  0.
       11    1    3    3    0    0 -0.30848845138E+02  0.25628903585E+02 -0.73221474061E+02  0.83485784472E+02  0.00000000000E+00 0. -1.
      -12    1    3    3    0    0  0.30848845138E+02 -0.25628903585E+02 -0.54400264908E+02  0.67586098921E+02  0.00000000000E+00 0.  1.
</event>
<event>
 5   0  0.2392100E+01  0.8046855E+02  0.7957747E-01  0.1326310E+00
       -2   -1    0    0    0  501  0.00000000000E+00  0.00000000000E+00  0.10007167476E+03  0.10007167476E+03  0.00000000000E+00 0.  1.
        1   -1    0    0  501    0  0.00000000000E+00  0.00000000000E+00 -0.16176373807E+02  0.16176373807E+02  0.00000000000E+00 0. -1.
      -24    2    1    2    0    0  0.00000000000E+00  0.00000000000E+00  0.83895300951E+02  0.11624804856E+03  0.80468548350E+02 0.  0.
       11    1    3    3    0    0 -0.22083241981E+02 -0.69613991968E+01 -0.55866148967E+01  0.23818919396E+02  0.00000000000E+00 0. -1.
      -12    1    3    3    0    0  0.22083241981E+02  0.69613991968E+01  0.89481915848E+02  0.92429129169E+02  0.00000000000E+00 0.  1.
</event>
<event>
 5   0  0.2392100E+01  0.9744438E+02  0.7957747E-01  0.1286459E+00
       -4   -1    0    0    0  501  0.00000000000E+00  0.00000000000E+00  0.45059969842E+02  0.45059969842E+02  0.00000000000E+00 0.  1.
        3   -1    0    0  501    0  0.00000000000E+00  0.00000000000E+00 -0.52682049507E+02  0.52682049507E+02  0.00000000000E+00 0. -1.
      -24    2    1    2    0    0  0.00000000000E+00  0.00000000000E+00 -0.76220796650E+01  0.97742019349E+02  0.97444375148E+02 0.  0.
       11    1    3    3    0    0 -0.23607142743E+02 -0.32473876982E+02 -0.31499735551E+02  0.51030218641E+02  0.00000000000E+00 0. -1.
      -12    1    3    3    0    0  0.23607142743E+02  0.32473876982E+02  0.23877655886E+02  0.46711800708E+02  0.00000000000E+00 0.  1.
</event>
<event>
 5   0  0.2392100E+01  0.8405071E+02  0.7957747E-01  0.1317027E+00
       -2   -1    0    0    0  501  0.00000000000E+00  0.00000000000E+00  0.72330930468E+01  0.72330930468E+01  0.00000000000E+00 0.  1.
        1   -1    0    0  501    0  0.00000000000E+00  0.00000000000E+00 -0.24417362209E+03  0.24417362209E+03  0.00000000000E+00 0. -1.
      -24    2    1    2    0    0  0.00000000000E+00  0.00000000000E+00 -0.23694052904E+03  0.25140671514E+03  0.84050711553E+02 0.  0.
       11    1    3    3    0    0 -0.33144182909E+02  0.81507051330E+01 -0.19180849028E+03  0.19482163073E+03  0.00000000000E+00 0. -1.
      -12    1    3    3    0    0  0.33144182909E+02 -0.81507051330E+01 -0.45132038757E+02  0.56585084406E+02  0.00000000000E+00 0.  1.
</event>
<event>
 5   0  0.2392100E+01  0.8034609E+02  0.7957747E-01  0.1326637E+00
       -4   -1    0    0    0  501  0.00000000000E+00  0.00000000000E+00  0.27456725441E+02  0.27456725441E+02  0.00000000000E+00 0.  1.
        3   -1    0    0  501    0  0.00000000000E+00  0.00000000000E+00 -0.58778803132E+02  0.58778803132E+02  0.00000000000E+00 0. -1.
      -24    2    1    2    0    0  0.00000000000E+00  0.00000000000E+00 -0.31322077691E+02  0.86235528573E+02  0.80346087879E+02 0.  0.
       11    1    3    3    0    0 -0.20932278726E+02  0.72567392385E+01 -0.51629478781E+02  0.56182057957E+02  0.00000000000E+00 0. -1.
      -12    1    3    3    0    0  0.20932278726E+02 -0.72567392385E+01  0.20307401090E+02  0.30053470616E+02  0.00000000000E+00 0.  1.
</event>
<event>
 5   0  0.2392100E+01  0.8121021E+02  0.7957747E-01  0.1324344E+00
        1   -1    0    0  501    0  0.00000000000E+00  0.00000000000E+00  0.30660402082E+02  0.30660402082E+02  0.00000000000E+00 0. -1.
       -2   -1    0    0    0  501  0.00000000000E+00  0.00000000000E+00 -0.53775369537E+02  0.53775369537E+02  0.00000000000E+00 0.  1.
      -24    2    1    2    0    0  0.00000000000E+00  0.00000000000E+00 -0.23114967455E+02  0.84435771619E+02  0.81210207539E+02 0.  0.
       11    1    3    3    0    0  0.25150382912E+00  0.23967053756E+02  0.22520738640E+02  0.32888700017E+02  0.00000000000E+00 0. -1.
      -12    1    3    3    0    0 -0.25150382912E+00 -0.23967053756E+02 -0.45635706096E+02  0.51547071602E+02  0.00000000000E+00 0.  1.
</event>
<event>
 5   0  0.2392100E+01  0.7600731E+02  0.7957747E-01  0.1338667E+00
       -2   -1    0    0    0  501  0.00000000000E+00  0.00000000000E+00  0.90802192207E+02  0.90802192207E+02  0.00000000000E+00 0.  1.
        1   -1    0    0  501    0  0.00000000000E+00  0.00000000000E+00 -0.15905758874E+02  0.15905758874E+02  0.00000000000E+00 0. -1.
      -24    2    1    2    0    0  0.00000000000E+00  0.00000000000E+00  0.74896433333E+02  0.10670795108E+03  0.76007309503E+02 0.  0.
       11    1    3    3    0    0  0.71940910032E+01 -0.17256565926E+02 -0.90028485049E+01  0.20750790205E+02  0.00000000000E+00 0. -1.
      -12    1    3    3    0    0 -0.71940910032E+01  0.17256565926E+02  0.83899281837E+02  0.85957160875E+02  0.00000000000E+00 0.  1.
</event>
<event>
 5   0  0.2392100E+01  0.7961556E+02  0.7957747E-01  0.1328602E+00
       -2   -1    0    0    0  501  0.00000000000E+00  0.00000000000E+00  0.30399489543E+03  0.30399489543E+03  0.00000000000E+00 0.  1.
        1   -1    0    0  501    0  0.00000000000E+00  0.00000000000E+00 -0.52127828969E+01  0.52127828969E+01  0.00000000000E+00 0. -1.
      -24    2    1    2    0    0  0.00000000000E+00  0.00000000000E+00  0.29878211254E+03  0.30920767833E+03  0.79615561084E+02 0.  0.
       11    1    3    3    0    0  0.77477469047E+01  0.20534551038E+02  0.20407905025E+02  0.29969617214E+02  0.00000000000E+00 0. -1.
      -12    1    3    3    0    0 -0.77477469047E+01 -0.20534551038E+02  0.27837420751E+03  0.27923806112E+03  0.00000000000E+00 0.  1.
</event>
<event>
 5   0  0.2392100E+01  0.8070268E+02  0.7957747E-01  0.1325687E+00
       -2   -1    0    0    0  501  0.00000000000E+00  0.00000000000E+00  0.41439525716E+03  0.41439525716E+03  0.00000000000E+00 0.  1.
        1   -1    0    0  501    0  0.00000000000E+00  0.00000000000E+00 -0.39291725702E+01  0.39291725702E+01  0.00000000000E+00 0. -1.
      -24    2    1    2    0    0  0.00000000000E+00  0.00000000000E+00  0.41046608459E+03  0.41832442973E+03  0.80702675982E+02 0.  0.
       11    1    3    3    0    0 -0.16593225623E+02 -0.14964899533E+02  0.31067557597E+02  0.38268479061E+02  0.00000000000E+00 0. -1.
      -12    1    3    3    0    0  0.16593225623E+02  0.14964899533E+02  0.37939852699E+03  0.38005595067E+03  0.00000000000E+00 0.  1.
</event>
<event>
 5   0  0.2392100E+01  0.8107354E+02  0.7957747E-01  0.1324704E+00
        1   -1    0    0  501    0  0.00000000000E+00  0.00000000000E+00  0.50235864914E+02  0.50235864914E+02  0.00000000000E+00 0. -1.
       -2   -1    0    0    0  501  0.00000000000E+00  0.00000000000E+00 -0.32710288382E+02  0.32710288382E+02  0.00000000000E+00 0.  1.
      -24    2    1    2    0    0  0.00000000000E+00  0.00000000000E+00  0.17525576532E+02  0.82946153297E+02  0.81073537692E+02 0.  0.
       11    1    3    3    0    0 -0.20331485336E+01  0.39672308501E+02  0.17024191584E+02  0.43218616982E+02  0.00000000000E+00 0. -1.
      -12    1    3    3    0    0  0.20331485336E+01 -0.39672308501E+02  0.50138494829E+00  0.39727536315E+02  0.00000000000E+00 0.  1.
</event>
<event>
 5   0  0.2392100E+01  0.8146743E+02  0.7957747E-01  0.1323667E+00
       -2   -1    0    0    0  501  0.00000000000E+00  0.00000000000E+00  0.79410831710E+02  0.79410831710E+02  0.00000000000E+00 0.  1.
        1   -1    0    0  501    0  0.00000000000E+00  0.00000000000E+00 -0.20894324663E+02  0.20894324663E+02  0.00000000000E+00 0. -1.
      -24    2    1    2    0    0  0.00000000000E+00  0.00000000000E+00  0.58516507047E+02  0.10030515637E+03  0.81467433972E+02 0.  0.
       11    1    3    3    0    0 -0.62784755841E+01 -0.36540604968E+02  0.84872656391E+01  0.38035098858E+02  0.00000000000E+00 0. -1.
      -12    1    3    3    0    0  0.62784755841E+01  0.36540604968E+02  0.50029241408E+02  0.62270057515E+02  0.00000000000E+00 0.  1.
</event>
<event>
 5   0  0.2392100E+01  0.8079816E+02  0.7957747E-01  0.1325433E+00
       -2   -1    0    0    0  501  0.00000000000E+00  0.00000000000E+00  0.47315018726E+02  0.47315018726E+02  0.00000000000E+00 0.  1.
        1   -1    0    0  501    0  0.00000000000E+00  0.00000000000E+00 -0.34494033379E+02  0.34494033379E+02  0.00000000000E+00 0. -1.
      -24    2    1    2    0    0  0.00000000000E+00  0.00000000000E+00  0.12820985346E+02  0.81809052105E+02  0.80798164219E+02 0.  0.
       11    1    3    3    0    0 -0.15564983464E+02 -0.58105886720E+01 -0.30874871456E+02  0.35061222716E+02  0.00000000000E+00 0. -1.
      -12    1    3    3    0    0  0.15564983464E+02  0.58105886720E+01  0.43695856802E+02  0.46747829389E+02  0.00000000000E+00 0.  1.
</event>
<event>
 5   0  0.2392100E+01  0.8063574E+02  0.7957747E-01  0.1325865E+00
       -2   -1    0    0    0  501  0.00000000000E+00  0.00000000000E+00  0.99592201673E+01  0.99592201673E+01  0.00000000000E+00 0.  1.
        1   -1    0    0  501    0  0.00000000000E+00  0.00000000000E+00 -0.16321868641E+03  0.16321868641E+03  0.00000000000E+00 0. -1.
      -24    2    1    2    0    0  0.00000000000E+00  0.00000000000E+00 -0.15325946624E+03  0.17317790658E+03  0.80635744763E+02 0.  0.
       11    1    3    3    0    0 -0.91506670471E+01 -0.22731949171E+02 -0.14539013180E+03  0.14744072248E+03  0.00000000000E+00 0. -1.
      -12    1    3    3    0    0  0.91506670471E+01  0.22731949171E+02 -0.78693344372E+01  0.25737184092E+02  0.00000000000E+00 0.  1.
</event>
<event>
 5   0  0.2392100E+01  0.7884979E+02  0.7957747E-01  0.1330686E+00
        1   -1    0    0  501    0  0.00000000000E+00  0.00000000000E+00  0.34504147434E+01  0.34504147434E+01  0.00000000000E+00 0. -1.
       -2   -1    0    0    0  501  0.00000000000E+00  0.00000000000E+00 -0.45047402720E+03  0.45047402720E+03  0.00000000000E+00 0.  1.
      -24    2    1    2    0    0  0.00000000000E+00  0.00000000000E+00 -0.44702361246E+03  0.45392444194E+03  0.78849786936E+02 0.  0.
       11    1    3    3    0    0  0.27890863947E+01  0.33620511284E+02 -0.10606630107E+03  0.11130219228E+03  0.00000000000E+00 0. -1.
      -12    1    3    3    0    0 -0.27890863947E+01 -0.33620511284E+02 -0.34095731138E+03  0.34262224967E+03  0.00000000000E+00 0.  1.
</event>
<event>
 5   0  0.2392100E+01  0.7919408E+02  0.7957747E-01  0.1329746E+00
        1   -1    0    0  501    0  0.00000000000E+00  0.00000000000E+00  0.44927327635E+03  0.44927327635E+03  0.00000000000E+00 0. -1.
       -2   -1    0    0    0  501  0.00000000000E+00  0.00000000000E+00 -0.34899148069E+01  0.34899148069E+01  0.00000000000E+00 0.  1.
      -24    2    1    2    0    0  0.00000000000E+00  0.00000000000E+00  0.44578336154E+03  0.45276319116E+03  0.79194077038E+02 0.  0.
       11    1    3    3    0    0  0.34708190739E+02 -0.19057427369E+02  0.22126037137E+03  0.22477543455E+03  0.00000000000E+00 0. -1.
      -12    1    3    3    0    0 -0.34708190739E+02  0.19057427369E+02  0.22452299018E+03  0.22798775660E+03  0.00000000000E+00 0.  1.
</event>
<event>
 5   0  0.2392100E+01  0.8178584E+02  0.7957747E-01  0.1322834E+00
       -2   -1    0    0    0  501  0.00000000000E+00  0.00000000000E+00  0.58982609799E+02  0.58982609799E+02  0.00000000000E+00 0.  1.
        1   -1    0    0  501    0  0.00000000000E+00  0.00000000000E+00 -0.28351255873E+02  0.28351255873E+02  0.00000000000E+00 0. -1.
      -24    2    1    2    0    0  0.00000000000E+00  0.00000000000E+00  0.30631353927E+02  0.87333865672E+02  0.81785843823E+02 0.  0.
       11    1    3    3    0    0  0.29911394927E+02  0.20974025885E+02 -0.43054930650E+01  0.36785031995E+02  0.00000000000E+00 0. -1.
      -12    1    3    3    0    0 -0.29911394927E+02 -0.20974025885E+02  0.34936846992E+02  0.50548833677E+02  0.00000000000E+00 0.  1.
</event>
<event>
 5   0  0.2392100E+01  0.5240829E+02  0.7957747E-01  0.1425213E+00
       -4   -1    0    0    0  501  0.00000000000E+00  0.00000000000E+00  0.32368609027E+02  0.32368609027E+02  0.00000000000E+00 0.  1.
        3   -1    0    0  501    0  0.00000000000E+00  0.00000000000E+00 -0.21213674275E+02  0.21213674275E+02  0.00000000000E+00 0. -1.
      -24    2    1    2    0    0  0.00000000000E+00  0.00000000000E+00  0.11154934752E+02  0.53582283303E+02  0.52408286698E+02 0.  0.
       11    1    3    3    0    0 -0.15371212835E+02 -0.38487255190E+01 -0.15760368085E+02  0.22348961370E+02  0.00000000000E+00 0. -1.
      -12    1    3    3    0    0  0.15371212835E+02  0.38487255190E+01  0.26915302837E+02  0.31233321933E+02  0.00000000000E+00 0.  1.
</event>
<event>
 5   0  0.2392100E+01  0.8904418E+02  0.7957747E-01  0.1304925E+00
        1   -1    0    0  501    0  0.00000000000E+00  0.00000000000E+00  0.10630721198E+03  0.10630721198E+03  0.00000000000E+00 0. -1.
       -2   -1    0    0    0  501  0.00000000000E+00  0.00000000000E+00 -0.18646114222E+02  0.18646114222E+02  0.00000000000E+00 0.  1.
      -24    2    1    2    0    0  0.00000000000E+00  0.00000000000E+00  0.87661097756E+02  0.12495332620E+03  0.89044178186E+02 0.  0.
       11    1    3    3    0    0  0.37860617133E+02  0.96285613799E+01  0.73798926371E+02  0.83501000338E+02  0.00000000000E+00 0. -1.
      -12    1    3    3    0    0 -0.37860617133E+02 -0.96285613799E+01  0.13862171385E+02  0.41452325863E+02  0.00000000000E+00 0.  1.
</event>
<event>
 5   0  0.2392100E+01  0.7935960E+02  0.7957747E-01  0.1329295E+00
       -2   -1    0    0    0  501  0.00000000000E+00  0.00000000000E+00  0.30169852109E+03  0.30169852109E+03  0.00000000000E+00 0.  1.
        1   -1    0    0  501    0  0.00000000000E+00  0.00000000000E+00 -0.52187418231E+01  0.52187418231E+01  0.00000000000E+00 0. -1.
      -24    2    1    2    0    0  0.00000000000E+00  0.00000000000E+00  0.29647977926E+03  0.30691726291E+03  0.79359604081E+02 0.  0.
       11    1    3    3    0    0  0.16731090739E+02 -0.34891198497E+02  0.11426779509E+03  0.12064184234E+03  0.00000000000E+00 0. -1.
      -12    1    3    3    0    0 -0.16731090739E+02  0.34891198497E+02  0.18221198417E+03  0.18627542056E+03  0.00000000000E+00 0.  1.
</event>
<event>
 5   0  0.2392100E+01  0.8027340E+02  0.7957747E-01  0.1326832E+00
        3   -1    0    0  501    0  0.00000000000E+00  0.00000000000E+00  0.73302158485E+01  0.73302158485E+01  0.00000000000E+00 0. -1.
       -4   -1    0    0    0  501  0.00000000000E+00  0.00000000000E+00 -0.21976904352E+03  0.21976904352E+03  0.00000000000E+00 0.  1.
      -24    2    1    2    0    0  0.00000000000E+00  0.00000000000E+00 -0.21243882767E+03  0.22709925937E+03  0.80273395987E+02 0.  0.
       11    1    3    3    0    0 -0.41532143407E+01  0.10931525306E+02  0.24039704173E+01  0.11938446660E+02  0.00000000000E+00 0. -1.
      -12    1    3    3    0    0  0.41532143407E+01 -0.10931525306E+02 -0.21484279809E+03  0.21516081271E+03  0.00000000000E+00 0.  1.
</event>
<event>
 5   0  0.2392100E+01  0.8702359E+02  0.7957747E-01  0.1309711E+00
        3   -1    0    0  501    0  0.00000000000E+00  0.00000000000E+00  0.35947404526E+02  0.35947404526E+02  0.00000000000E+00 0. -1.
       -4   -1    0    0    0  501  0.00000000000E+00  0.00000000000E+00 -0.52667960123E+02  0.52667960123E+02  0.00000000000E+00 0.  1.
      -24    2    1    2    0    0  0.00000000000E+00  0.00000000000E+00 -0.16720555596E+02  0.88615364649E+02  0.87023593769E+02 0.  0.
       11    1    3    3    0    0  0.36591358472E+02  0.16997956759E+02  0.82293844390E+01  0.41177430919E+02  0.00000000000E+00 0. -1.
      -12    1    3    3    0    0 -0.36591358472E+02 -0.16997956759E+02 -0.24949940035E+02  0.47437933730E+02  0.00000000000E+00 0.  1.
</event>
<event>
 5   0  0.2392100E+01  0.8101891E+02  0.7957747E-01  0.1324849E+00
        1   -1    0    0  501    0  0.00000000000E+00  0.00000000000E+00  0.39608647914E+02  0.39608647914E+02  0.00000000000E+00 0. -1.
       -2   -1    0    0    0  501  0.00000000000E+00  0.00000000000E+00 -0.41430746617E+02  0.41430746617E+02  0.00000000000E+00 0.  1.
      -24    2    1    2    0    0  0.00000000000E+00  0.00000000000E+00 -0.18220987028E+01  0.81039394531E+02  0.81018907807E+02 0.  0.
       11    1    3    3    0    0  0.28890101672E+02  0.26810428609E+02  0.84496715232E+01  0.40309229783E+02  0.00000000000E+00 0. -1.
      -12    1    3    3    0    0 -0.28890101672E+02 -0.26810428609E+02 -0.10271770226E+02  0.40730164748E+02  0.00000000000E+00 0.  1.
</event>
<event>
 5   0  0.2392100E+01  0.8244570E+02  0.7957747E-01  0.1321120E+00
        1   -1    0    0  501    0  0.00000000000E+00  0.00000000000E+00  0.12357970588E+03  0.12357970588E+03  0.00000000000E+00 0. -1.
       -2   -1    0    0    0  501  0.00000000000E+00  0.00000000000E+00 -0.13750829438E+02  0.13750829438E+02  0.00000000000E+00 0.  1.
      -24    2    1    2    0    0  0.00000000000E+00  0.00000000000E+00  0.10982887644E+03  0.13733053531E+03  0.82445702313E+02 0.  0.
       11    1    3    3    0    0 -0.34332219613E+02  0.11536692117E+02  0.87705087186E+02  0.94889298063E+02  0.00000000000E+00 0. -1.
      -12    1    3    3    0    0  0.34332219613E+02 -0.11536692117E+02  0.22123789252E+02  0.42441237251E+02  0.00000000000E+00 0.  1.
</event>
<event>
 5   0  0.2392100E+01  0.8164354E+02  0.7957747E-01  0.1323206E+00
        3   -1    0    0  501    0  0.00000000000E+00  0.00000000000E+00  0.47581454577E+01  0.47581454577E+01  0.00000000000E+00 0. -1.
       -4   -1    0    0    0  501  0.00000000000E+00  0.00000000000E+00 -0.35022403892E+03  0.35022403892E+03  0.00000000000E+00 0.  1.
      -24    2    1    2    0    0  0.00000000000E+00  0.00000000000E+00 -0.34546589347E+03  0.35498218438E+03  0.81643540344E+02 0.  0.
       11    1    3    3    0    0  0.30280387644E+02  0.25722618602E+02 -0.13197755107E+03  0.13782825896E+03  0.00000000000E+00 0. -1.
      -12    1    3    3    0    0 -0.30280387644E+02 -0.25722618602E+02 -0.21348834240E+03  0.21715392542E+03  0.00000000000E+00 0.  1.
</event>
<event>
 5   0  0.2392100E+01  0.8102318E+02  0.7957747E-01  0.1324837E+00
       -2   -1    0    0    0  501  0.00000000000E+00  0.00000000000E+00  0.24941379770E+02  0.24941379770E+02  0.00000000000E+00 0.  1.
        1   -1    0    0  501    0  0.00000000000E+00  0.00000000000E+00 -0.65801856660E+02  0.65801856660E+02  0.00000000000E+00 0. -1.
      -24    2    1    2    0    0  0.00000000000E+00  0.00000000000E+00 -0.40860476890E+02  0.90743236430E+02  0.81023184251E+02 0.  0.
       11    1    3    3    0    0 -0.34601608612E+02  0.17276941557E+02 -0.33936171601E+02  0.51453160943E+02  0.00000000000E+00 0. -1.
      -12    1    3    3    0    0  0.34601608612E+02 -0.17276941557E+02 -0.69243052885E+01  0.39290075487E+02  0.00000000000E+00 0.  1.
</event>
<event>
 5   0  0.2392100E+01  0.8049723E+02  0.7957747E-01  0.1326234E+00
       -2   -1    0    0    0  501  0.00000000000E+00  0.00000000000E+00  0.61487281383E+02  0.61487281383E+02  0.00000000000E+00 0.  1.
        1   -1    0    0  501    0  0.00000000000E+00  0.00000000000E+00 -0.26346116897E+02  0.26346116897E+02  0.00000000000E+00 0. -1.
      -24    2    1    2    0    0  0.00000000000E+00  0.00000000000E+00  0.35141164487E+02  0.87833398280E+02  0.80497232325E+02 0.  0.
       11    1    3    3    0    0  0.16972161062E+02 -0.58807333020E+00 -0.22245419195E+02  0.27986760379E+02  0.00000000000E+00 0. -1.
      -12    1    3    3    0    0 -0.16972161062E+02  0.58807333020E+00  0.57386583682E+02  0.59846637901E+02  0.00000000000E+00 0.  1.
</event>
<event>
 5   0  0.2392100E+01  0.7245555E+02  0.7957747E-01  0.1349214E+00
        1   -1    0    0  501    0  0.00000000000E+00  0.00000000000E+00  0.85604626417E+01  0.85604626417E+01  0.00000000000E+00 0. -1.
       -2   -1    0    0    0  501  0.00000000000E+00  0.00000000000E+00 -0.15331551870E+03  0.15331551870E+03  0.00000000000E+00 0.  1.
      -24    2    1    2    0    0  0.00000000000E+00  0.00000000000E+00 -0.14475505606E+03  0.16187598134E+03  0.72455552451E+02 0.  0.
       11    1    3    3    0    0  0.11566508509E+02  0.25592813024E+02 -0.21251518074E+02  0.35219358569E+02  0.00000000000E+00 0. -1.
      -12    1    3    3    0    0 -0.11566508509E+02 -0.25592813024E+02 -0.12350353799E+03  0.12665662277E+03  0.00000000000E+00 0.  1.
</event>
<event>
 5   0  0.2392100E+01  0.8097605E+02  0.7957747E-01  0.1324962E+00
       -4   -1    0    0    0  501  0.00000000000E+00  0.00000000000E+00  0.18050260420E+03  0.18050260420E+03  0.00000000000E+00 0.  1.
        3   -1    0    0  501    0  0.00000000000E+00  0.00000000000E+00 -0.90817529286E+01  0.90817529286E+01  0.00000000000E+00 0. -1.
      -24    2    1    2    0    0  0.00000000000E+00  0.00000000000E+00  0.17142085127E+03  0.18958435712E+03  0.80976047181E+02 0.  0.
       11    1    3    3    0    0 -0.11843543402E+02  0.19353034180E+01 -0.48221822137E+01  0.12933227011E+02  0.00000000000E+00 0. -1.
      -12    1    3    3    0    0  0.11843543402E+02 -0.19353034180E+01  0.17624303348E+03  0.17665113011E+03  0.00000000000E+00 0.  1.
</event>
<event>
 5   0  0.2392100E+01  0.7981601E+02  0.7957747E-01  0.1328060E+00
       -4   -1    0    0    0  501  0.00000000000E+00  0.00000000000E+00  0.66125253310E+03  0.66125253310E+03  0.00000000000E+00 0.  1.
        3   -1    0    0  501    0  0.00000000000E+00  0.00000000000E+00 -0.24085333679E+01  0.24085333679E+01  0.00000000000E+00 0. -1.
      -24    2    1    2    0    0  0.00000000000E+00  0.00000000000E+00  0.65884399973E+03  0.66366106647E+03  0.79816008183E+02 0.  0.
       11    1    3    3    0    0  0.30415676683E+02 -0.10497629188E+02  0.13312459094E+03  0.13695791441E+03  0.00000000000E+00 0. -1.
      -12    1    3    3    0    0 -0.30415676683E+02  0.10497629188E+02  0.52571940879E+03  0.52670315206E+03  0.00000000000E+00 0.  1.
</event>
<event>
 5   0  0.2392100E+01  0.8511348E+02  0.7957747E-01  0.1314373E+00
        1   -1    0    0  501    0  0.00000000000E+00  0.00000000000E+00  0.27670787311E+03  0.27670787311E+03  0.00000000000E+00 0. -1.
       -2   -1    0    0    0  501  0.00000000000E+00  0.00000000000E+00 -0.65450832921E+01  0.65450832921E+01  0.00000000000E+00 0.  1.
      -24    2    1    2    0    0  0.00000000000E+00  0.00000000000E+00  0.27016278982E+03  0.28325295640E+03  0.85113479005E+02 0.  0.
       11    1    3    3    0    0  0.37237060827E+01 -0.39599789385E+02  0.18544967896E+03  0.18966705759E+03  0.00000000000E+00 0. -1.
      -12    1    3    3    0    0 -0.37237060827E+01  0.39599789385E+02  0.84713110857E+02  0.93585898817E+02  0.00000000000E+00 0.  1.
</event>
<event>
 5   0  0.2392100E+01  0.8107599E+02  0.7957747E-01  0.1324698E+00
        3   -1    0    0  501    0  0.00000000000E+00  0.00000000000E+00  0.79180709955E+01  0.79180709955E+01  0.00000000000E+00 0. -1.
       -4   -1    0    0    0  501  0.00000000000E+00  0.00000000000E+00 -0.20754158091E+03  0.20754158091E+03  0.00000000000E+00 0.  1.
      -24    2    1    2    0    0  0.00000000000E+00  0.00000000000E+00 -0.19962350992E+03  0.21545965191E+03  0.81075988361E+02 0.  0.
       11    1    3    3    0    0  0.23476573940E+02 -0.30730807106E+02 -0.67504026231E+02  0.77796693932E+02  0.00000000000E+00 0. -1.
      -12    1    3    3    0    0 -0.23476573940E+02  0.30730807106E+02 -0.13211948369E+03  0.13766295798E+03  0.00000000000E+00 0.  1.
</event>
<event>
 5   0  0.2392100E+01  0.7949500E+02  0.7957747E-01  0.1328928E+00
       -2   -1    0    0    0  501  0.00000000000E+00  0.00000000000E+00  0.11142081602E+04  0.11142081602E+04  0.00000000000E+00 0.  1.
        1   -1    0    0  501    0  0.00000000000E+00  0.00000000000E+00 -0.14179249647E+01  0.14179249647E+01  0.00000000000E+00 0. -1.
      -24    2    1    2    0    0  0.00000000000E+00  0.00000000000E+00  0.11127902353E+04  0.11156260852E+04  0.79494995220E+02 0.  0.
       11    1    3    3    0    0  0.13170603084E+02  0.23256537323E+02  0.14351829822E+03  0.14598572957E+03  0.00000000000E+00 0. -1.
      -12    1    3    3    0    0 -0.13170603084E+02 -0.23256537323E+02  0.96927193706E+03  0.96964035564E+03  0.00000000000E+00 0.  1.
</event>
<event>
 4   0  0.2392100E+01  0.3383235E+02  0.7957747E-01  0.1542618E+00
        3   -1    0    0  501    0  0.00000000000E+00  0.00000000000E+00  0.45269426468E+02  0.45269426468E+02  0.00000000000E+00 0. -1.
       -4   -1    0    0    0  501  0.00000000000E+00  0.00000000000E+00 -0.63211983423E+01  0.63211983423E+01  0.00000000000E+00 0.  1.
       11    1    1    2    0    0  0.34073207063E+01 -0.11376213739E+02  0.37844387206E+02  0.39663909495E+02  0.00000000000E+00 0. -1.
      -12    1    1    2    0    0 -0.34073207063E+01  0.11376213739E+02  0.11038409196E+01  0.11926715315E+02  0.00000000000E+00 0.  1.
</event>
<event>
 5   0  0.2392100E+01  0.8049662E+02  0.7957747E-01  0.1326235E+00
       -4   -1    0    0    0  501  0.00000000000E+00  0.00000000000E+00  0.28609645366E+02  0.28609645366E+02  0.00000000000E+00 0.  1.
        3   -1    0    0  501    0  0.00000000000E+00  0.00000000000E+00 -0.56621683220E+02  0.56621683220E+02  0.00000000000E+00 0. -1.
      -24    2    1    2    0    0  0.00000000000E+00  0.00000000000E+00 -0.28012037854E+02  0.85231328586E+02  0.80496615505E+02 0.  0.
       11    1    3    3    0    0  0.11377589631E+02 -0.37556478173E+02 -0.45363851551E+01  0.39503384524E+02  0.00000000000E+00 0. -1.
      -12    1    3    3    0    0 -0.11377589631E+02  0.37556478173E+02 -0.23475652698E+02  0.45727944062E+02  0.00000000000E+00 0.  1.
</event>
<event>
 5   0  0.2392100E+01  0.7604659E+02  0.7957747E-01  0.1338554E+00
       -2   -1    0    0    0  501  0.00000000000E+00  0.00000000000E+00  0.72663894540E+02  0.72663894540E+02  0.00000000000E+00 0.  1.
        1   -1    0    0  501    0  0.00000000000E+00  0.00000000000E+00 -0.19896688072E+02  0.19896688072E+02  0.00000000000E+00 0. -1.
      -24    2    1    2    0    0  0.00000000000E+00  0.00000000000E+00  0.52767206467E+02  0.92560582612E+02  0.76046586874E+02 0.  0.
       11    1    3    3    0    0 -0.84817510322E+01 -0.18169139019E+02 -0.12938516961E+02  0.23863422521E+02  0.00000000000E+00 0. -1.
      -12    1    3    3    0    0  0.84817510322E+01  0.18169139019E+02  0.65705723429E+02  0.68697160091E+02  0.00000000000E+00 0.  1.
</event>
<event>
 5   0  0.2392100E+01  0.8091072E+02  0.7957747E-01  0.1325135E+00
       -2   -1    0    0    0  501  0.00000000000E+00  0.00000000000E+00  0.83956044979E+02  0.83956044979E+02  0.00000000000E+00 0.  1.
        1   -1    0    0  501    0  0.00000000000E+00  0.00000000000E+00 -0.19493964333E+02  0.19493964333E+02  0.00000000000E+00 0. -1.
      -24    2    1    2    0    0  0.00000000000E+00  0.00000000000E+00  0.64462080646E+02  0.10345000931E+03  0.80910719841E+02 0.  0.
       11    1    3    3    0    0  0.14646072323E+02  0.65475846986E+01 -0.15252949227E+02  0.22136638408E+02  0.00000000000E+00 0. -1.
      -12    1    3    3    0    0 -0.14646072323E+02 -0.65475846986E+01  0.79715029873E+02  0.81313370903E+02  0.00000000000E+00 0.  1.
</event>
<event>
 5   0  0.2392100E+01  0.9694930E+02  0.7957747E-01  0.1287488E+00
        1   -1    0    0  501    0  0.00000000000E+00  0.00000000000E+00  0.96761375833E+01  0.96761375833E+01  0.00000000000E+00 0. -1.
       -2   -1    0    0    0  501  0.00000000000E+00  0.00000000000E+00 -0.24284398636E+03  0.24284398636E+03  0.00000000000E+00 0.  1.
      -24    2    1    2    0    0  0.00000000000E+00  0.00000000000E+00 -0.23316784878E+03  0.25252012395E+03  0.96949302697E+02 0.  0.
       11    1    3    3    0    0  0.39805288767E+02 -0.16030228970E+02 -0.57856887776E+02  0.72033663781E+02  0.00000000000E+00 0. -1.
      -12    1    3    3    0    0 -0.39805288767E+02  0.16030228970E+02 -0.17531096101E+03  0.18048646017E+03  0.00000000000E+00 0.  1.
</event>
<event>
 5   0  0.2392100E+01  0.8215017E+02  0.7957747E-01  0.1321886E+00
       -4   -1    0    0    0  501  0.00000000000E+00  0.00000000000E+00  0.18425814652E+02  0.18425814652E+02  0.00000000000E+00 0.  1.
        3   -1    0    0  501    0  0.00000000000E+00  0.00000000000E+00 -0.91565157153E+02  0.91565157153E+02  0.00000000000E+00 0. -1.
      -24    2    1    2    0    0  0.00000000000E+00  0.00000000000E+00 -0.73139342501E+02  0.10999097180E+03  0.82150170159E+02 0.  0.
       11    1    3    3    0    0 -0.13152696025E+02  0.15438414266E+02 -0.84393468012E+02  0.86796287310E+02  0.00000000000E+00 0. -1.
      -12    1    3    3    0    0  0.13152696025E+02 -0.15438414266E+02  0.11254125511E+02  0.23194684494E+02  0.00000000000E+00 0.  1.
</event>
<event>
 5   0  0.2392100E+01  0.7898114E+02  0.7957747E-01  0.1330327E+00
       -4   -1    0    0    0  501  0.00000000000E+00  0.00000000000E+00  0.22726523637E+02  0.22726523637E+02  0.00000000000E+00 0.  1.
        3   -1    0    0  501    0  0.00000000000E+00  0.00000000000E+00 -0.68620480480E+02  0.68620480480E+02  0.00000000000E+00 0. -1.
      -24    2    1    2    0    0  0.00000000000E+00  0.00000000000E+00 -0.45893956843E+02  0.91347004117E+02  0.78981136269E+02 0.  0.
       11    1    3    3    0    0  0.21056116334E+02  0.31142070864E+02 -0.36936967436E+02  0.52702259687E+02  0.00000000000E+00 0. -1.
      -12    1    3    3    0    0 -0.21056116334E+02 -0.31142070864E+02 -0.89569894071E+01  0.38644744429E+02  0.00000000000E+00 0.  1.
</event>
<event>
 5   0  0.2392100E+01  0.8218335E+02  0.7957747E-01  0.1321800E+00
        1   -1    0    0  501    0  0.00000000000E+00  0.00000000000E+00  0.69842833221E+02  0.69842833221E+02  0.00000000000E+00 0. -1.
       -2   -1    0    0    0  501  0.00000000000E+00  0.00000000000E+00 -0.24176076912E+02  0.24176076912E+02  0.00000000000E+00 0.  1.
      -24    2    1    2    0    0  0.00000000000E+00  0.00000000000E+00  0.45666756309E+02  0.94018910132E+02  0.82183348865E+02 0.  0.
       11    1    3    3    0    0 -0.21521681077E+02  0.19846020012E+02  0.55821445678E+02  0.63032381077E+02  0.00000000000E+00 0. -1.
      -12    1    3    3    0    0  0.21521681077E+02 -0.19846020012E+02 -0.10154689369E+02  0.30986529055E+02  0.00000000000E+00 0.  1.
</event>
<event>
 5   0  0.2392100E+01  0.8062184E+02  0.7957747E-01  0.1325902E+00
        1   -1    0    0  501    0  0.00000000000E+00  0.00000000000E+00  0.48657285006E+02  0.48657285006E+02  0.00000000000E+00 0. -1.
       -2   -1    0    0    0  501  0.00000000000E+00  0.00000000000E+00 -0.33396241788E+02  0.33396241788E+02  0.00000000000E+00 0.  1.
      -24    2    1    2    0    0  0.00000000000E+00  0.00000000000E+00  0.15261043218E+02  0.82053526793E+02  0.80621844553E+02 0.  0.
       11    1    3    3    0    0  0.21415316091E+02  0.27994764803E+02  0.27539278922E+02  0.44729570791E+02  0.00000000000E+00 0. -1.
      -12    1    3    3    0    0 -0.21415316091E+02 -0.27994764803E+02 -0.12278235704E+02  0.37323956002E+02  0.00000000000E+00 0.  1.
</event>
<event>
 5   0  0.2392100E+01  0.8079627E+02  0.7957747E-01  0.1325438E+00
       -4   -1    0    0    0  501  0.00000000000E+00  0.00000000000E+00  0.41010648406E+01  0.41010648406E+01  0.00000000000E+00 0.  1.
        3   -1    0    0  501    0  0.00000000000E+00  0.00000000000E+00 -0.39794773671E+03  0.39794773671E+03  0.00000000000E+00 0. -1.
      -24    2    1    2    0    0  0.00000000000E+00  0.00000000000E+00 -0.39384667187E+03  0.40204880155E+03  0.80796273959E+02 0.  0.
       11    1    3    3    0    0 -0.13666413632E+02 -0.33992915055E+02 -0.11222460001E+03  0.11805358945E+03  0.00000000000E+00 0. -1.
      -12    1    3    3    0    0  0.13666413632E+02  0.33992915055E+02 -0.28162207186E+03  0.28399521209E+03  0.00000000000E+00 0.  1.
</event>
<event>
 5   0  0.2392100E+01  0.8066205E+02  0.7957747E-01  0.1325795E+00
       -2   -1    0    0    0  501  0.00000000000E+00  0.00000000000E+00  0.51026562553E+02  0.51026562553E+02  0.00000000000E+00 0.  1.
        1   -1    0    0  501    0  0.00000000000E+00  0.00000000000E+00 -0.31877351522E+02  0.31877351522E+02  0.00000000000E+00 0. -1.
      -24    2    1    2    0    0  0.00000000000E+00  0.00000000000E+00  0.19149211031E+02  0.82903914075E+02  0.80662052329E+02 0.  0.
       11    1    3    3    0    0  0.19605183478E+02  0.24417351137E+02 -0.16548765879E+02  0.35417960244E+02  0.00000000000E+00 0. -1.
      -12    1    3    3    0    0 -0.19605183478E+02 -0.24417351137E+02  0.35697976910E+02  0.47485953831E+02  0.00000000000E+00 0.  1.
</event>
<event>
 5   0  0.2392100E+01  0.7980291E+02  0.7957747E-01  0.1328095E+00
       -2   -1    0    0    0  501  0.00000000000E+00  0.00000000000E+00  0.55389461185E+03  0.55389461185E+03  0.00000000000E+00 0.  1.
        1   -1    0    0  501    0  0.00000000000E+00  0.00000000000E+00 -0.28744206140E+01  0.28744206140E+01  0.00000000000E+00 0. -1.
      -24    2    1    2    0    0  0.00000000000E+00  0.00000000000E+00  0.55102019124E+03  0.55676903247E+03  0.79802909478E+02 0.  0.
       11    1    3    3    0    0  0.25909591115E+02  0.86978182605E+01  0.72682217560E+02  0.77650909227E+02  0.00000000000E+00 0. -1.
      -12    1    3    3    0    0 -0.25909591115E+02 -0.86978182605E+01  0.47833797368E+03  0.47911812324E+03  0.00000000000E+00 0.  1.
</event>
<event>
 5   0  0.2392100E+01  0.7971150E+02  0.7957747E-01  0.1328342E+00
       -2   -1    0    0    0  501  0.00000000000E+00  0.00000000000E+00  0.42361496949E+02  0.42361496949E+02  0.00000000000E+00 0.  1.
        1   -1    0    0  501    0  0.00000000000E+00  0.00000000000E+00 -0.37498226475E+02  0.37498226475E+02  0.00000000000E+00 0. -1.
      -24    2    1    2    0    0  0.00000000000E+00  0.00000000000E+00  0.48632704740E+01  0.79859723425E+02  0.79711504978E+02 0.  0.
       11    1    3    3    0    0 -0.19552807702E+02 -0.26911186568E+02 -0.19562699416E+02  0.38590458147E+02  0.00000000000E+00 0. -1.
      -12    1    3    3    0    0  0.19552807702E+02  0.26911186568E+02  0.24425969890E+02  0.41269265278E+02  0.00000000000E+00 0.  1.
</event>
<event>
 5   0  0.2392100E+01  0.8118448E+02  0.7957747E-01  0.1324412E+00
        1   -1    0    0  501    0  0.00000000000E+00  0.00000000000E+00  0.18337621420E+02  0.18337621420E+02  0.00000000000E+00 0. -1.
       -2   -1    0    0    0  501  0.00000000000E+00  0.00000000000E+00 -0.89855162183E+02  0.89855162183E+02  0.00000000000E+00 0.  1.
      -24    2    1    2    0    0  0.00000000000E+00  0.00000000000E+00 -0.71517540762E+02  0.10819278360E+03  0.81184479965E+02 0.  0.
       11    1    3    3    0    0  0.21201800512E+02  0.21617143829E+02  0.27071290952E+00  0.30280200425E+02  0.00000000000E+00 0. -1.
      -12    1    3    3    0    0 -0.21201800512E+02 -0.21617143829E+02 -0.71788253672E+02  0.77912583178E+02  0.00000000000E+00 0.  1.
</event>
<event>
 5   0  0.2392100E+01  0.7994801E+02  0.7957747E-01  0.1327705E+00
        1   -1    0    0  501    0  0.00000000000E+00  0.00000000000E+00  0.10559531862E+03  0.10559531862E+03  0.00000000000E+00 0. -1.
       -2   -1    0    0    0  501  0.00000000000E+00  0.00000000000E+00 -0.15132498460E+02  0.15132498460E+02  0.00000000000E+00 0.  1.
      -24    2    1    2    0    0  0.00000000000E+00  0.00000000000E+00  0.90462820164E+02  0.12072781708E+03  0.79948008017E+02 0.  0.
       11    1    3    3    0    0  0.86846786875E+01  0.21690944624E+02  0.94210152189E+02  0.97064275086E+02  0.00000000000E+00 0. -1.
      -12    1    3    3    0    0 -0.86846786875E+01 -0.21690944624E+02 -0.37473320244E+01  0.23663541998E+02  0.00000000000E+00 0.  1.
</event>
<event>
 5   0  0.2392100E+01  0.8110008E+02  0.7957747E-01  0.1324634E+00
       -4   -1    0    0    0  501  0.00000000000E+00  0.00000000000E+00  0.23404680225E+02  0.23404680225E+02  0.00000000000E+00 0.  1.
        3   -1    0    0  501    0  0.00000000000E+00  0.00000000000E+00 -0.70255430895E+02  0.70255430895E+02  0.00000000000E+00 0. -1.
      -24    2    1    2    0    0  0.00000000000E+00  0.00000000000E+00 -0.46850750669E+02  0.93660111120E+02  0.81100083704E+02 0.  0.
       11    1    3    3    0    0 -0.23946700663E+02 -0.95044266735E+01 -0.59588271976E+02  0.64919494423E+02  0.00000000000E+00 0. -1.
      -12    1    3    3    0    0  0.23946700663E+02  0.95044266735E+01  0.12737521307E+02  0.28740616697E+02  0.00000000000E+00 0.  1.
</event>
<event>
 4   0  0.2392100E+01  0.1163462E+03  0.7957747E-01  0.1251627E+00
       -2   -1    0    0    0  501  0.00000000000E+00  0.00000000000E+00  0.10554731488E+02  0.10554731488E+02  0.00000000000E+00 0.  1.
        1   -1    0    0  501    0  0.00000000000E+00  0.00000000000E+00 -0.32062502844E+03  0.32062502844E+03  0.00000000000E+00 0. -1.
       11    1    1    2    0    0 -0.56446752174E+02 -0.14066319302E+02 -0.15537091207E+03  0.16590424192E+03  0.00000000000E+00 0. -1.
      -12    1    1    2    0    0  0.56446752174E+02  0.14066319302E+02 -0.15469938488E+03  0.16527551801E+03  0.00000000000E+00 0.  1.
</event>
<event>
 4   0  0.2392100E+01  0.1776865E+03  0.7957747E-01  0.1175600E+00
       -2   -1    0    0    0  501  0.00000000000E+00  0.00000000000E+00  0.17009223125E+03  0.17009223125E+03  0.00000000000E+00 0.  1.
        1   -1    0    0  501    0  0.00000000000E+00  0.00000000000E+00 -0.46404955503E+02  0.46404955503E+02  0.00000000000E+00 0. -1.
       11    1    1    2    0    0 -0.87379895920E+02  0.85790020896E+01  0.78383555097E+02  0.11769803396E+03  0.00000000000E+00 0. -1.
      -12    1    1    2    0    0  0.87379895920E+02 -0.85790020896E+01  0.45303720645E+02  0.98799152791E+02  0.00000000000E+00 0.  1.
</event>
<event>
 5   0  0.2392100E+01  0.8231137E+02  0.7957747E-01  0.1321468E+00
        3   -1    0    0  501    0  0.00000000000E+00  0.00000000000E+00  0.91845474649E+02  0.91845474649E+02  0.00000000000E+00 0. -1.
       -4   -1    0    0    0  501  0.00000000000E+00  0.00000000000E+00 -0.18441739912E+02  0.18441739912E+02  0.00000000000E+00 0.  1.
      -24    2    1    2    0    0  0.00000000000E+00  0.00000000000E+00  0.73403734737E+02  0.11028721456E+03  0.82311368731E+02 0.  0.
       11    1    3    3    0    0  0.32783106060E+02  0.18491349851E+02  0.59007049733E+02  0.69989241891E+02  0.00000000000E+00 0. -1.
      -12    1    3    3    0    0 -0.32783106060E+02 -0.18491349851E+02  0.14396685004E+02  0.40297972671E+02  0.00000000000E+00 0.  1.
</event>
<event>
 5   0  0.2392100E+01  0.7982042E+02  0.7957747E-01  0.1328048E+00
       -2   -1    0    0    0  501  0.00000000000E+00  0.00000000000E+00  0.18198360732E+02  0.18198360732E+02  0.00000000000E+00 0.  1.
        1   -1    0    0  501    0  0.00000000000E+00  0.00000000000E+00 -0.87525722035E+02  0.87525722035E+02  0.00000000000E+00 0. -1.
      -24    2    1    2    0    0  0.00000000000E+00  0.00000000000E+00 -0.69327361303E+02  0.10572408277E+03  0.79820415006E+02 0.  0.
       11    1    3    3    0    0  0.23544156989E+02 -0.32222070029E+02 -0.34020859588E+02  0.52440518804E+02  0.00000000000E+00 0. -1.
      -12    1    3    3    0    0 -0.23544156989E+02  0.32222070029E+02 -0.35306501715E+02  0.53283563964E+02  0.00000000000E+00 0.  1.
</event>
<event>
 5   0  0.2392100E+01  0.8174531E+02  0.7957747E-01  0.1322940E+00
        1   -1    0    0  501    0  0.00000000000E+00  0.00000000000E+00  0.28214546422E+02  0.28214546422E+02  0.00000000000E+00 0. -1.
       -2   -1    0    0    0  501  0.00000000000E+00  0.00000000000E+00 -0.59209664409E+02  0.59209664409E+02  0.00000000000E+00 0.  1.
      -24    2    1    2    0    0  0.00000000000E+00  0.00000000000E+00 -0.30995117987E+02  0.87424210831E+02  0.81745307513E+02 0.  0.
       11    1    3    3    0    0 -0.27809213429E+01  0.33823516008E+02  0.88622055278E+01  0.35075667427E+02  0.00000000000E+00 0. -1.
      -12    1    3    3    0    0  0.27809213429E+01 -0.33823516008E+02 -0.39857323515E+02  0.52348543403E+02  0.00000000000E+00 0.  1.
</event>
<event>
 5   0  0.2392100E+01  0.8185095E+02  0.7957747E-01  0.1322664E+00
        1   -1    0    0  501    0  0.00000000000E+00  0.00000000000E+00  0.10329959986E+03  0.10329959986E+03  0.00000000000E+00 0. -1.
       -2   -1    0    0    0  501  0.00000000000E+00  0.00000000000E+00 -0.16213948367E+02  0.16213948367E+02  0.00000000000E+00 0.  1.
      -24    2    1    2    0    0  0.00000000000E+00  0.00000000000E+00  0.87085651497E+02  0.11951354823E+03  0.81850946933E+02 0.  0.
       11    1    3    3    0    0  0.12410303591E+02  0.26112524184E+02  0.12488755777E+01  0.28938542546E+02  0.00000000000E+00 0. -1.
      -12    1    3    3    0    0 -0.12410303591E+02 -0.26112524184E+02  0.85836775919E+02  0.90575005684E+02  0.00000000000E+00 0.  1.
</event>
<event>
 5   0  0.2392100E+01  0.8314879E+02  0.7957747E-01  0.1319314E+00
        1   -1    0    0  501    0  0.00000000000E+00  0.00000000000E+00  0.32940138439E+01  0.32940138439E+01  0.00000000000E+00 0. -1.
       -2   -1    0    0    0  501  0.00000000000E+00  0.00000000000E+00 -0.52471864534E+03  0.52471864534E+03  0.00000000000E+00 0.  1.
      -24    2    1    2    0    0  0.00000000000E+00  0.00000000000E+00 -0.52142463150E+03  0.52801265919E+03  0.83148793903E+02 0.  0.
       11    1    3    3    0    0  0.19337414249E+02  0.25483212468E+02 -0.92090416460E+02  0.97488330129E+02  0.00000000000E+00 0. -1.
      -12    1    3    3    0    0 -0.19337414249E+02 -0.25483212468E+02 -0.42933421504E+03  0.43052432906E+03  0.00000000000E+00 0.  1.
</event>
<event>
 5   0  0.2392100E+01  0.8078157E+02  0.7957747E-01  0.1325477E+00
        1   -1    0    0  501    0  0.00000000000E+00  0.00000000000E+00  0.48536849438E+03  0.48536849438E+03  0.00000000000E+00 0. -1.
       -2   -1    0    0    0  501  0.00000000000E+00  0.00000000000E+00 -0.33611898503E+01  0.33611898503E+01  0.00000000000E+00 0.  1.
      -24    2    1    2    0    0  0.00000000000E+00  0.00000000000E+00  0.48200730453E+03  0.48872968423E+03  0.80781573566E+02 0.  0.
       11    1    3    3    0    0  0.37856034496E+02  0.14071840135E+02  0.23758325647E+03  0.24099149319E+03  0.00000000000E+00 0. -1.
      -12    1    3    3    0    0 -0.37856034496E+02 -0.14071840135E+02  0.24442404805E+03  0.24773819104E+03  0.00000000000E+00 0.  1.
</event>
<event>
 5   0  0.2392100E+01  0.8040237E+02  0.7957747E-01  0.1326487E+00
       -2   -1    0    0    0  501  0.00000000000E+00  0.00000000000E+00  0.77159173051E+01  0.77159173051E+01  0.00000000000E+00 0.  1.
        1   -1    0    0  501    0  0.00000000000E+00  0.00000000000E+00 -0.20945474049E+03  0.20945474049E+03  0.00000000000E+00 0. -1.
      -24    2    1    2    0    0  0.00000000000E+00  0.00000000000E+00 -0.20173882319E+03  0.21717065780E+03  0.80402374512E+02 0.  0.
       11    1    3    3    0    0 -0.24877420884E+02  0.21439936114E+02 -0.16349520314E+03  0.16676102177E+03  0.00000000000E+00 0. -1.
      -12    1    3    3    0    0  0.24877420884E+02 -0.21439936114E+02 -0.38243620041E+02  0.50409636026E+02  0.00000000000E+00 0.  1.
</event>
<event>
 5   0  0.2392100E+01  0.7926044E+02  0.7957747E-01  0.1329565E+00
       -2   -1    0    0    0  501  0.00000000000E+00  0.00000000000E+00  0.38655147533E+02  0.38655147533E+02  0.00000000000E+00 0.  1.
        1   -1    0    0  501    0  0.00000000000E+00  0.00000000000E+00 -0.40629890902E+02  0.40629890902E+02  0.00000000000E+00 0. -1.
      -24    2    1    2    0    0  0.00000000000E+00  0.00000000000E+00 -0.19747433695E+01  0.79285038435E+02  0.79260442266E+02 0.  0.
       11    1    3    3    0    0  0.31168873802E+02  0.92122932261E+01 -0.23670152893E+02  0.40207476650E+02  0.00000000000E+00 0. -1.
      -12    1    3    3    0    0 -0.31168873802E+02 -0.92122932261E+01  0.21695409524E+02  0.39077561784E+02  0.00000000000E+00 0.  1.
</event>
<event>
 5   0  0.2392100E+01  0.8010700E+02  0.7957747E-01  0.1327277E+00
        1   -1    0    0  501    0  0.00000000000E+00  0.00000000000E+00  0.17864595674E+02  0.17864595674E+02  0.00000000000E+00 0. -1.
       -2   -1    0    0    0  501  0.00000000000E+00  0.00000000000E+00 -0.89802354651E+02  0.89802354651E+02  0.00000000000E+00 0.  1.
      -24    2    1    2    0    0  0.00000000000E+00  0.00000000000E+00 -0.71937758977E+02  0.10766695032E+03  0.80106997358E+02 0.  0.
       11    1    3    3    0    0 -0.17978319515E+02  0.29287348745E+02 -0.83158149149E+01  0.35357057949E+02  0.00000000000E+00 0. -1.
      -12    1    3    3    0    0  0.17978319515E+02 -0.29287348745E+02 -0.63621944062E+02  0.72309892375E+02  0.00000000000E+00 0.  1.
</event>
<event>
 5   0  0.2392100E+01  0.8398156E+02  0.7957747E-01  0.1317201E+00
       -2   -1    0    0    0  501  0.00000000000E+00  0.00000000000E+00  0.14234915901E+02  0.14234915901E+02  0.00000000000E+00 0.  1.
        1   -1    0    0  501    0  0.00000000000E+00  0.00000000000E+00 -0.12386624130E+03  0.12386624130E+03  0.00000000000E+00 0. -1.
      -24    2    1    2    0    0  0.00000000000E+00  0.00000000000E+00 -0.10963132540E+03  0.13810115720E+03  0.83981558161E+02 0.  0.
       11    1    3    3    0    0 -0.60305013078E+01 -0.33420802806E+02 -0.95426855012E+02  0.10128969179E+03  0.00000000000E+00 0. -1.
      -12    1    3    3    0    0  0.60305013078E+01  0.33420802806E+02 -0.14204470383E+02  0.36811465402E+02  0.00000000000E+00 0.  1.
</event>
<event>
 5   0  0.2392100E+01  0.7931083E+02  0.7957747E-01  0.1329428E+00
       -2   -1    0    0    0  501  0.00000000000E+00  0.00000000000E+00  0.19005390920E+02  0.19005390920E+02  0.00000000000E+00 0.  1.
        1   -1    0    0  501    0  0.00000000000E+00  0.00000000000E+00 -0.82742408384E+02  0.82742408384E+02  0.00000000000E+00 0. -1.
      -24    2    1    2    0    0  0.00000000000E+00  0.00000000000E+00 -0.63737017465E+02  0.10174779930E+03  0.79310826927E+02 0.  0.
       11    1    3    3    0    0  0.17394006686E+02  0.13105925620E+02 -0.74383314473E+02  0.77506091547E+02  0.00000000000E+00 0. -1.
      -12    1    3    3    0    0 -0.17394006686E+02 -0.13105925620E+02  0.10646297008E+02  0.24241707756E+02  0.00000000000E+00 0.  1.
</event>
<event>
 5   0  0.2392100E+01  0.8133423E+02  0.7957747E-01  0.1324017E+00
        1   -1    0    0  501    0  0.00000000000E+00  0.00000000000E+00  0.14306329195E+03  0.14306329195E+03  0.00000000000E+00 0. -1.
       -2   -1    0    0    0  501  0.00000000000E+00  0.00000000000E+00 -0.11560018003E+02  0.11560018003E+02  0.00000000000E+00 0.  1.
      -24    2    1    2    0    0  0.00000000000E+00  0.00000000000E+00  0.13150327394E+03  0.15462330995E+03  0.81334229706E+02 0.  0.
       11    1    3    3    0    0  0.13953409485E+02 -0.28857570774E+02  0.11333034512E+03  0.11777616122E+03  0.00000000000E+00 0. -1.
      -12    1    3    3    0    0 -0.13953409485E+02  0.28857570774E+02  0.18172928821E+02  0.36847148725E+02  0.00000000000E+00 0.  1.
</event>
<event>
 5   0  0.2392100E+01  0.8175057E+02  0.7957747E-01  0.1322926E+00
        1   -1    0    0  501    0  0.00000000000E+00  0.00000000000E+00  0.67714987839E+01  0.67714987839E+01  0.00000000000E+00 0. -1.
       -2   -1    0    0    0  501  0.00000000000E+00  0.00000000000E+00 -0.24673843491E+03  0.24673843491E+03  0.00000000000E+00 0.  1.
      -24    2    1    2    0    0  0.00000000000E+00  0.00000000000E+00 -0.23996693612E+03  0.25350993369E+03  0.81750572155E+02 0.  0.
       11    1    3    3    0    0  0.18562389990E+02  0.18973887112E+02 -0.23591286454E+02  0.35512244520E+02  0.00000000000E+00 0. -1.
      -12    1    3    3    0    0 -0.18562389990E+02 -0.18973887112E+02 -0.21637564967E+03  0.21799768917E+03  0.00000000000E+00 0.  1.
</event>
<event>
 5   0  0.2392100E+01  0.7876386E+02  0.7957747E-01  0.1330922E+00
       -2   -1    0    0    0  501  0.00000000000E+00  0.00000000000E+00  0.61485926544E+02  0.61485926544E+02  0.00000000000E+00 0.  1.
        1   -1    0    0  501    0  0.00000000000E+00  0.00000000000E+00 -0.25224248405E+02  0.25224248405E+02  0.00000000000E+00 0. -1.
      -24    2    1    2    0    0  0.00000000000E+00  0.00000000000E+00  0.36261678139E+02  0.86710174949E+02  0.78763856802E+02 0.  0.
       11    1    3    3    0    0  0.13893236721E+02  0.36789348926E+02  0.15806410439E+02  0.42383025281E+02  0.00000000000E+00 0. -1.
      -12    1    3    3    0    0 -0.13893236721E+02 -0.36789348926E+02  0.20455267700E+02  0.44327149668E+02  0.00000000000E+00 0.  1.
</event>
<event>
 5   0  0.2392100E+01  0.7916329E+02  0.7957747E-01  0.1329830E+00
        3   -1    0    0  501    0  0.00000000000E+00  0.00000000000E+00  0.31164471003E+02  0.31164471003E+02  0.00000000000E+00 0. -1.
       -4   -1    0    0    0  501  0.00000000000E+00  0.00000000000E+00 -0.50272206620E+02  0.50272206620E+02  0.00000000000E+00 0.  1.
      -24    2    1    2    0    0  0.00000000000E+00  0.00000000000E+00 -0.19107735617E+02  0.81436677623E+02  0.79163292642E+02 0.  0.
       11    1    3    3    0    0  0.21441033419E+02  0.30381256195E+01  0.24530058899E+02  0.32721123315E+02  0.00000000000E+00 0. -1.
      -12    1    3    3    0    0 -0.21441033419E+02 -0.30381256195E+01 -0.43637794516E+02  0.48715554308E+02  0.00000000000E+00 0.  1.
</event>
<event>
 5   0  0.2392100E+01  0.8280275E+02  0.7957747E-01  0.1320201E+00
       -2   -1    0    0    0  501  0.00000000000E+00  0.00000000000E+00  0.50849824522E+02  0.50849824522E+02  0.00000000000E+00 0.  1.
        1   -1    0    0  501    0  0.00000000000E+00  0.00000000000E+00 -0.33708548664E+02  0.33708548664E+02  0.00000000000E+00 0. -1.
      -24    2    1    2    0    0  0.00000000000E+00  0.00000000000E+00  0.17141275858E+02  0.84558373186E+02  0.82802748371E+02 0.  0.
       11    1    3    3    0    0  0.39939495225E+02 -0.88620703575E+01  0.20818450670E+01  0.40963809011E+02  0.00000000000E+00 0. -1.
      -12    1    3    3    0    0 -0.39939495225E+02  0.88620703575E+01  0.15059430791E+02  0.43594564175E+02  0.00000000000E+00 0.  1.
</event>
<event>
 5   0  0.2392100E+01  0.9230294E+02  0.7957747E-01  0.1297499E+00
       -4   -1    0    0    0  501  0.00000000000E+00  0.00000000000E+00  0.66736946517E+01  0.66736946517E+01  0.00000000000E+00 0.  1.
        3   -1    0    0  501    0  0.00000000000E+00  0.00000000000E+00 -0.31915729893E+03  0.31915729893E+03  0.00000000000E+00 0. -1.
      -24    2    1    2    0    0  0.00000000000E+00  0.00000000000E+00 -0.31248360428E+03  0.32583099358E+03  0.92302943808E+02 0.  0.
       11    1    3    3    0    0 -0.21838235424E+02 -0.40217348622E+02 -0.13517534521E+03  0.14271200934E+03  0.00000000000E+00 0. -1.
      -12    1    3    3    0    0  0.21838235424E+02  0.40217348622E+02 -0.17730825907E+03  0.18311898424E+03  0.00000000000E+00 0.  1.
</event>
<event>
 5   0  0.2392100E+01  0.8010129E+02  0.7957747E-01  0.1327293E+00
        1   -1    0    0  501    0  0.00000000000E+00  0.00000000000E+00  0.13780154334E+03  0.13780154334E+03  0.00000000000E+00 0. -1.
       -2   -1    0    0    0  501  0.00000000000E+00  0.00000000000E+00 -0.11640322024E+02  0.11640322024E+02  0.00000000000E+00 0.  1.
      -24    2    1    2    0    0  0.00000000000E+00  0.00000000000E+00  0.12616122132E+03  0.14944186537E+03  0.80101294370E+02 0.  0.
       11    1    3    3    0    0 -0.28718205863E+02  0.21779773415E+02  0.95660868298E+02  0.10222570910E+03  0.00000000000E+00 0. -1.
      -12    1    3    3    0    0  0.28718205863E+02 -0.21779773415E+02  0.30500353023E+02  0.47216156266E+02  0.00000000000E+00 0.  1.
</event>
<event>
 5   0  0.2392100E+01  0.8201749E+02  0.7957747E-01  0.1322230E+00
       -2   -1    0    0    0  501  0.00000000000E+00  0.00000000000E+00  0.14682300321E+02  0.14682300321E+02  0.00000000000E+00 0.  1.
        1   -1    0    0  501    0  0.00000000000E+00  0.00000000000E+00 -0.11454043999E+03  0.11454043999E+03  0.00000000000E+00 0. -1.
      -24    2    1    2    0    0  0.00000000000E+00  0.00000000000E+00 -0.99858139665E+02  0.12922274031E+03  0.82017489326E+02 0.  0.
       11    1    3    3    0    0  0.23144571013E+02  0.29267323050E+02 -0.23122941900E+02  0.43896671947E+02  0.00000000000E+00 0. -1.
      -12    1    3    3    0    0 -0.23144571013E+02 -0.29267323050E+02 -0.76735197765E+02  0.85326068361E+02  0.00000000000E+00 0.  1.
</event>
<event>
 5   0  0.2392100E+01  0.8024455E+02  0.7957747E-01  0.1326909E+00
       -2   -1    0    0    0  501  0.00000000000E+00  0.00000000000E+00  0.45912435662E+01  0.45912435662E+01  0.00000000000E+00 0.  1.
        1   -1    0    0  501    0  0.00000000000E+00  0.00000000000E+00 -0.35062326116E+03  0.35062326116E+03  0.00000000000E+00 0. -1.
      -24    2    1    2    0    0  0.00000000000E+00  0.00000000000E+00 -0.34603201759E+03  0.35521450473E+03  0.80244546032E+02 0.  0.
       11    1    3    3    0    0 -0.38268127982E+02  0.97670958687E+01 -0.20430181194E+03  0.20808430057E+03  0.00000000000E+00 0. -1.
      -12    1    3    3    0    0  0.38268127982E+02 -0.97670958687E+01 -0.14173020565E+03  0.14713020416E+03  0.00000000000E+00 0.  1.
</event>
<event>
 5   0  0.2392100E+01  0.8214809E+02  0.7957747E-01  0.1321891E+00
       -2   -1    0    0    0  501  0.00000000000E+00  0.00000000000E+00  0.16864208609E+03  0.16864208609E+03  0.00000000000E+00 0.  1.
        1   -1    0    0  501    0  0.00000000000E+00  0.00000000000E+00 -0.10003891259E+02  0.10003891259E+02  0.00000000000E+00 0. -1.
      -24    2    1    2    0    0  0.00000000000E+00  0.00000000000E+00  0.15863819483E+03  0.17864597735E+03  0.82148088010E+02 0.  0.
       11    1    3    3    0    0 -0.31228963119E+02 -0.20449044951E+02  0.42052284232E+02  0.56229940299E+02  0.00000000000E+00 0. -1.
      -12    1    3    3    0    0  0.31228963119E+02  0.20449044951E+02  0.11658591060E+03  0.12241603705E+03  0.00000000000E+00 0.  1.
</event>
<event>
 5   0  0.2392100E+01  0.7935188E+02  0.7957747E-01  0.1329316E+00
       -2   -1    0    0    0  501  0.00000000000E+00  0.00000000000E+00  0.87670668278E+01  0.87670668278E+01  0.00000000000E+00 0.  1.
        1   -1    0    0  501    0  0.00000000000E+00  0.00000000000E+00 -0.17955608993E+03  0.17955608993E+03  0.00000000000E+00 0. -1.
      -24    2    1    2    0    0  0.00000000000E+00  0.00000000000E+00 -0.17078902310E+03  0.18832315676E+03  0.79351880627E+02 0.  0.
       11    1    3    3    0    0 -0.31242436239E+02  0.20958815187E+02 -0.11530317625E+03  0.12128554823E+03  0.00000000000E+00 0. -1.
      -12    1    3    3    0    0  0.31242436239E+02 -0.20958815187E+02 -0.55485846850E+02  0.67037608526E+02  0.00000000000E+00 0.  1.
</event>
<event>
 5   0  0.2392100E+01  0.8095103E+02  0.7957747E-01  0.1325028E+00
        1   -1    0    0  501    0  0.00000000000E+00  0.00000000000E+00  0.83418292665E+03  0.83418292665E+03  0.00000000000E+00 0. -1.
       -2   -1    0    0    0  501  0.00000000000E+00  0.00000000000E+00 -0.19639185720E+01  0.19639185720E+01  0.00000000000E+00 0.  1.
      -24    2    1    2    0    0  0.00000000000E+00  0.00000000000E+00  0.83221900808E+03  0.83614684523E+03  0.80951030682E+02 0.  0.
       11    1    3    3    0    0  0.17339372564E+02  0.23025989962E+02  0.12260876796E+03  0.12595141935E+03  0.00000000000E+00 0. -1.
      -12    1    3    3    0    0 -0.17339372564E+02 -0.23025989962E+02  0.70961024012E+03  0.71019542588E+03  0.00000000000E+00 0.  1.
</event>
<event>
 5   0  0.2392100E+01  0.8047617E+02  0.7957747E-01  0.1326290E+00
       -2   -1    0    0    0  501  0.00000000000E+00  0.00000000000E+00  0.59474466004E+03  0.59474466004E+03  0.00000000000E+00 0.  1.
        1   -1    0    0  501    0  0.00000000000E+00  0.00000000000E+00 -0.27223505815E+01  0.27223505815E+01  0.00000000000E+00 0. -1.
      -24    2    1    2    0    0  0.00000000000E+00  0.00000000000E+00  0.59202230946E+03  0.59746701062E+03  0.80476169668E+02 0.  0.
       11    1    3    3    0    0 -0.27436706820E+02  0.42508576012E+01  0.79783453252E+02  0.84476281194E+02  0.00000000000E+00 0. -1.
      -12    1    3    3    0    0  0.27436706820E+02 -0.42508576012E+01  0.51223885621E+03  0.51299072943E+03  0.00000000000E+00 0.  1.
</event>
<event>
 5   0  0.2392100E+01  0.7924001E+02  0.7957747E-01  0.1329621E+00
       -2   -1    0    0    0  501  0.00000000000E+00  0.00000000000E+00  0.33177868124E+02  0.33177868124E+02  0.00000000000E+00 0.  1.
        1   -1    0    0  501    0  0.00000000000E+00  0.00000000000E+00 -0.47313014772E+02  0.47313014772E+02  0.00000000000E+00 0. -1.
      -24    2    1    2    0    0  0.00000000000E+00  0.00000000000E+00 -0.14135146648E+02  0.80490882895E+02  0.79240014251E+02 0.  0.
       11    1    3    3    0    0 -0.97060279660E+01  0.31095497840E+02 -0.29975919623E+02  0.44268416756E+02  0.00000000000E+00 0. -1.
      -12    1    3    3    0    0  0.97060279660E+01 -0.31095497840E+02  0.15840772975E+02  0.36222466140E+02  0.00000000000E+00 0.  1.
</event>
<event>
 5   0  0.2392100E+01  0.8221073E+02  0.7957747E-01  0.1321729E+00
        1   -1    0    0  501    0  0.00000000000E+00  0.00000000000E+00  0.31211776199E+03  0.31211776199E+03  0.00000000000E+00 0. -1.
       -2   -1    0    0    0  501  0.00000000000E+00  0.00000000000E+00 -0.54135044554E+01  0.54135044554E+01  0.00000000000E+00 0.  1.
      -24    2    1    2    0    0  0.00000000000E+00  0.00000000000E+00  0.30670425753E+03  0.31753126644E+03  0.82210726676E+02 0.  0.
       11    1    3    3    0    0  0.36833265085E+02 -0.15406594610E+02  0.19111657672E+03  0.19524240951E+03  0.00000000000E+00 0. -1.
      -12    1    3    3    0    0 -0.36833265085E+02  0.15406594610E+02  0.11558768082E+03  0.12228885694E+03  0.00000000000E+00 0.  1.
</event>
<event>
 5   0  0.2392100E+01  0.7581409E+02  0.7957747E-01  0.1339224E+00
        1   -1    0    0  501    0  0.00000000000E+00  0.00000000000E+00  0.66256973939E+01  0.66256973939E+01  0.00000000000E+00 0. -1.
       -2   -1    0    0    0  501  0.00000000000E+00  0.00000000000E+00 -0.21687437006E+03  0.21687437006E+03  0.00000000000E+00 0.  1.
      -24    2    1    2    0    0  0.00000000000E+00  0.00000000000E+00 -0.21024867266E+03  0.22350006745E+03  0.75814087042E+02 0.  0.
       11    1    3    3    0    0  0.18208505035E+02 -0.11676460147E+02 -0.13354096583E+02  0.25420882611E+02  0.00000000000E+00 0. -1.
      -12    1    3    3    0    0 -0.18208505035E+02  0.11676460147E+02 -0.19689457608E+03  0.19807918484E+03  0.00000000000E+00 0.  1.
</event>
<event>
 5   0  0.2392100E+01  0.8073992E+02  0.7957747E-01  0.1325588E+00
       -2   -1    0    0    0  501  0.00000000000E+00  0.00000000000E+00  0.56686877029E+01  0.56686877029E+01  0.00000000000E+00 0.  1.
        1   -1    0    0  501    0  0.00000000000E+00  0.00000000000E+00 -0.28749748845E+03  0.28749748845E+03  0.00000000000E+00 0. -1.
      -24    2    1    2    0    0  0.00000000000E+00  0.00000000000E+00 -0.28182880074E+03  0.29316617615E+03  0.80739915219E+02 0.  0.
       11    1    3    3    0    0  0.15464137693E+02  0.35838867236E+02 -0.17832765557E+03  0.18254949110E+03  0.00000000000E+00 0. -1.
      -12    1    3    3    0    0 -0.15464137693E+02 -0.35838867236E+02 -0.10350114517E+03  0.11061668505E+03  0.00000000000E+00 0.  1.
</event>
<event>
 5   0  0.2392100E+01  0.8072246E+02  0.7957747E-01  0.1325634E+00
       -4   -1    0    0    0  501  0.00000000000E+00  0.00000000000E+00  0.59688038924E+02  0.59688038924E+02  0.00000000000E+00 0.  1.
        3   -1    0    0  501    0  0.00000000000E+00  0.00000000000E+00 -0.27292387161E+02  0.27292387161E+02  0.00000000000E+00 0. -1.
      -24    2    1    2    0    0  0.00000000000E+00  0.00000000000E+00  0.32395651763E+02  0.86980426085E+02  0.80722464462E+02 0.  0.
       11    1    3    3    0    0  0.35672722169E+02  0.13384757179E+02  0.30546884569E+02  0.48834485648E+02  0.00000000000E+00 0. -1.
      -12    1    3    3    0    0 -0.35672722169E+02 -0.13384757179E+02  0.18487671934E+01  0.38145940437E+02  0.00000000000E+00 0.  1.
</event>
<event>
 5   0  0.2392100E+01  0.8022810E+02  0.7957747E-01  0.1326953E+00
       -2   -1    0    0    0  501  0.00000000000E+00  0.00000000000E+00  0.13331402634E+02  0.13331402634E+02  0.00000000000E+00 0.  1.
        1   -1    0    0  501    0  0.00000000000E+00  0.00000000000E+00 -0.12070275888E+03  0.12070275888E+03  0.00000000000E+00 0. -1.
      -24    2    1    2    0    0  0.00000000000E+00  0.00000000000E+00 -0.10737135625E+03  0.13403416152E+03  0.80228101752E+02 0.  0.
       11    1    3    3    0    0  0.19949999869E+02 -0.13021635441E+02 -0.10760365010E+03  0.11020939615E+03  0.00000000000E+00 0. -1.
      -12    1    3    3    0    0 -0.19949999869E+02  0.13021635441E+02  0.23229385333E+00  0.23824765367E+02  0.00000000000E+00 0.  1.
</event>
<event>
 5   0  0.2392100E+01  0.7600786E+02  0.7957747E-01  0.1338665E+00
       -2   -1    0    0    0  501  0.00000000000E+00  0.00000000000E+00  0.51820832924E+01  0.51820832924E+01  0.00000000000E+00 0.  1.
        1   -1    0    0  501    0  0.00000000000E+00  0.00000000000E+00 -0.27871008402E+03  0.27871008402E+03  0.00000000000E+00 0. -1.
      -24    2    1    2    0    0  0.00000000000E+00  0.00000000000E+00 -0.27352800073E+03  0.28389216731E+03  0.76007864589E+02 0.  0.
       11    1    3    3    0    0  0.23323852269E+02 -0.25396525712E+02 -0.19644437907E+03  0.19944768656E+03  0.00000000000E+00 0. -1.
      -12    1    3    3    0    0 -0.23323852269E+02  0.25396525712E+02 -0.77083621654E+02  0.84444480756E+02  0.00000000000E+00 0.  1.
</event>
<event>
 5   0  0.2392100E+01  0.7628500E+02  0.7957747E-01  0.1337870E+00
       -2   -1    0    0    0  501  0.00000000000E+00  0.00000000000E+00  0.42646570359E+02  0.42646570359E+02  0.00000000000E+00 0.  1.
        1   -1    0    0  501    0  0.00000000000E+00  0.00000000000E+00 -0.34114124009E+02  0.34114124009E+02  0.00000000000E+00 0. -1.
      -24    2    1    2    0    0  0.00000000000E+00  0.00000000000E+00  0.85324463502E+01  0.76760694367E+02  0.76285002189E+02 0.  0.
       11    1    3    3    0    0  0.31657103835E+02  0.18170455357E+02 -0.68713435857E+01  0.37142334791E+02  0.00000000000E+00 0. -1.
      -12    1    3    3    0    0 -0.31657103835E+02 -0.18170455357E+02  0.15403789936E+02  0.39618359576E+02  0.00000000000E+00 0.  1.
</event>
<event>
 5   0  0.2392100E+01  0.7955437E+02  0.7957747E-01  0.1328767E+00
       -2   -1    0    0    0  501  0.00000000000E+00  0.00000000000E+00  0.29952710629E+02  0.29952710629E+02  0.00000000000E+00 0.  1.
        1   -1    0    0  501    0  0.00000000000E+00  0.00000000000E+00 -0.52824079479E+02  0.52824079479E+02  0.00000000000E+00 0. -1.
      -24    2    1    2    0    0  0.00000000000E+00  0.00000000000E+00 -0.22871368849E+02  0.82776790108E+02  0.79554367998E+02 0.  0.
       11    1    3    3    0    0 -0.10157361943E+02  0.29302094074E+02 -0.37353256978E+02  0.48549464730E+02  0.00000000000E+00 0. -1.
      -12    1    3    3    0    0  0.10157361943E+02 -0.29302094074E+02  0.14481888129E+02  0.34227325378E+02  0.00000000000E+00 0.  1.
</event>
<event>
 5   0  0.2392100E+01  0.9201459E+02  0.7957747E-01  0.1298142E+00
       -4   -1    0    0    0  501  0.00000000000E+00  0.00000000000E+00  0.59176654378E+02  0.59176654378E+02  0.00000000000E+00 0.  1.
        3   -1    0    0  501    0  0.00000000000E+00  0.00000000000E+00 -0.35768682932E+02  0.35768682932E+02  0.00000000000E+00 0. -1.
      -24    2    1    2    0    0  0.00000000000E+00  0.00000000000E+00  0.23407971446E+02  0.94945337310E+02  0.92014585526E+02 0.  0.
       11    1    3    3    0    0 -0.41956378075E+02  0.15229356685E+02  0.19526120153E+00  0.44635289773E+02  0.00000000000E+00 0. -1.
      -12    1    3    3    0    0  0.41956378075E+02 -0.15229356685E+02  0.23212710244E+02  0.50310047536E+02  0.00000000000E+00 0.  1.
</event>
<event>
 5   0  0.2392100E+01  0.8178695E+02  0.7957747E-01  0.1322831E+00
        1   -1    0    0  501    0  0.00000000000E+00  0.00000000000E+00  0.37352894489E+02  0.37352894489E+02  0.00000000000E+00 0. -1.
       -2   -1    0    0    0  501  0.00000000000E+00  0.00000000000E+00 -0.44769656838E+02  0.44769656838E+02  0.00000000000E+00 0.  1.
      -24    2    1    2    0    0  0.00000000000E+00  0.00000000000E+00 -0.74167623487E+01  0.82122551327E+02  0.81786949281E+02 0.  0.
       11    1    3    3    0    0 -0.31142779643E+02 -0.23385072822E+02  0.88144389626E+01  0.39930297882E+02  0.00000000000E+00 0. -1.
      -12    1    3    3    0    0  0.31142779643E+02  0.23385072822E+02 -0.16231201311E+02  0.42192253445E+02  0.00000000000E+00 0.  1.
</event>
<event>
 5   0  0.2392100E+01  0.8095568E+02  0.7957747E-01  0.1325016E+00
        3   -1    0    0  501    0  0.00000000000E+00  0.00000000000E+00  0.17529030817E+02  0.17529030817E+02  0.00000000000E+00 0. -1.
       -4   -1    0    0    0  501  0.00000000000E+00  0.00000000000E+00 -0.93470971605E+02  0.93470971605E+02  0.00000000000E+00 0.  1.
      -24    2    1    2    0    0  0.00000000000E+00  0.00000000000E+00 -0.75941940788E+02  0.11100000242E+03  0.80955680264E+02 0.  0.
       11    1    3    3    0    0  0.41284700387E+00  0.12190693866E+02  0.14949171644E+02  0.19294071432E+02  0.00000000000E+00 0. -1.
      -12    1    3    3    0    0 -0.41284700387E+00 -0.12190693866E+02 -0.90891112432E+02  0.91705930990E+02  0.00000000000E+00 0.  1.
</event>
<event>
 5   0  0.2392100E+01  0.7364731E+02  0.7957747E-01  0.1345599E+00
        1   -1    0    0  501    0  0.00000000000E+00  0.00000000000E+00  0.23704582381E+02  0.23704582381E+02  0.00000000000E+00 0. -1.
       -2   -1    0    0    0  501  0.00000000000E+00  0.00000000000E+00 -0.57203347597E+02  0.57203347597E+02  0.00000000000E+00 0.  1.
      -24    2    1    2    0    0  0.00000000000E+00  0.00000000000E+00 -0.33498765216E+02  0.80907929977E+02  0.73647307230E+02 0.  0.
       11    1    3    3    0    0  0.14944797067E+02  0.31848119727E+02 -0.47989147259E+01  0.35506045571E+02  0.00000000000E+00 0. -1.
      -12    1    3    3    0    0 -0.14944797067E+02 -0.31848119727E+02 -0.28699850490E+02  0.45401884407E+02  0.00000000000E+00 0.  1.
</event>
<event>
 5   0  0.2392100E+01  0.8046781E+02  0.7957747E-01  0.1326312E+00
       -2   -1    0    0    0  501  0.00000000000E+00  0.00000000000E+00  0.76352513240E+02  0.76352513240E+02  0.00000000000E+00 0.  1.
        1   -1    0    0  501    0  0.00000000000E+00  0.00000000000E+00 -0.21201231248E+02  0.21201231248E+02  0.00000000000E+00 0. -1.
      -24    2    1    2    0    0  0.00000000000E+00  0.00000000000E+00  0.55151281992E+02  0.97553744488E+02  0.80467814425E+02 0.  0.
       11    1    3    3    0    0 -0.16878877165E+02  0.65829637537E+01 -0.15976217901E+02  0.24155153582E+02  0.00000000000E+00 0. -1.
      -12    1    3    3    0    0  0.16878877165E+02 -0.65829637537E+01  0.71127499892E+02  0.73398590907E+02  0.00000000000E+00 0.  1.
</event>
<event>
 5   0  0.2392100E+01  0.8532088E+02  0.7957747E-01  0.1313860E+00
       -2   -1    0    0    0  501  0.00000000000E+00  0.00000000000E+00  0.63296126120E+02  0.63296126120E+02  0.00000000000E+00 0.  1.
        1   -1    0    0  501    0  0.00000000000E+00  0.00000000000E+00 -0.28752359536E+02  0.28752359536E+02  0.00000000000E+00 0. -1.
      -24    2    1    2    0    0  0.00000000000E+00  0.00000000000E+00  0.34543766584E+02  0.92048485657E+02  0.85320876120E+02 0.  0.
       11    1    3    3    0    0  0.36340793317E+02 -0.20972362937E+02  0.89556511580E+01  0.42903344319E+02  0.00000000000E+00 0. -1.
      -12    1    3    3    0    0 -0.36340793317E+02  0.20972362937E+02  0.25588115426E+02  0.49145141338E+02  0.00000000000E+00 0.  1.
</event>
<event>
 4   0  0.2392100E+01  0.3578729E+03  0.7957747E-01  0.1068306E+00
        1   -1    0    0  501    0  0.00000000000E+00  0.00000000000E+00  0.52554056214E+03  0.52554056214E+03  0.00000000000E+00 0. -1.
       -2   -1    0    0    0  501  0.00000000000E+00  0.00000000000E+00 -0.60924416111E+02  0.60924416111E+02  0.00000000000E+00 0.  1.
       11    1    1    2    0    0 -0.53298667970E+02  0.14351785279E+03  0.38410403114E+03  0.41349005890E+03  0.00000000000E+00 0. -1.
      -12    1    1    2    0    0  0.53298667970E+02 -0.14351785279E+03  0.80512114891E+02  0.17297491934E+03  0.00000000000E+00 0.  1.
</event>
<event>
 5   0  0.2392100E+01  0.8084194E+02  0.7957747E-01  0.1325317E+00
        1   -1    0    0  501    0  0.00000000000E+00  0.00000000000E+00  0.35208705730E+02  0.35208705730E+02  0.00000000000E+00 0. -1.
       -2   -1    0    0    0  501  0.00000000000E+00  0.00000000000E+00 -0.46404847358E+02  0.46404847358E+02  0.00000000000E+00 0.  1.
      -24    2    1    2    0    0  0.00000000000E+00  0.00000000000E+00 -0.11196141627E+02  0.81613553088E+02  0.80841935036E+02 0.  0.
       11    1    3    3    0    0  0.19955402751E+02  0.34746133047E+02 -0.10972676562E+02  0.41544090934E+02  0.00000000000E+00 0. -1.
      -12    1    3    3    0    0 -0.19955402751E+02 -0.34746133047E+02 -0.22346506588E+00  0.40069462154E+02  0.00000000000E+00 0.  1.
</event>
<event>
 5   0  0.2392100E+01  0.8128331E+02  0.7957747E-01  0.1324151E+00
       -2   -1    0    0    0  501  0.00000000000E+00  0.00000000000E+00  0.12255206835E+02  0.12255206835E+02  0.00000000000E+00 0.  1.
        1   -1    0    0  501    0  0.00000000000E+00  0.00000000000E+00 -0.13477895652E+03  0.13477895652E+03  0.00000000000E+00 0. -1.
      -24    2    1    2    0    0  0.00000000000E+00  0.00000000000E+00 -0.12252374969E+03  0.14703416336E+03  0.81283306752E+02 0.  0.
       11    1    3    3    0    0 -0.40748002657E+01  0.39296476808E+02 -0.78510841775E+02  0.87890667098E+02  0.00000000000E+00 0. -1.
      -12    1    3    3    0    0  0.40748002657E+01 -0.39296476808E+02 -0.44012907912E+02  0.59143496258E+02  0.00000000000E+00 0.  1.
</event>
<event>
 5   0  0.2392100E+01  0.9427611E+02  0.7957747E-01  0.1293168E+00
        1   -1    0    0  501    0  0.00000000000E+00  0.00000000000E+00  0.19632444008E+03  0.19632444008E+03  0.00000000000E+00 0. -1.
       -2   -1    0    0    0  501  0.00000000000E+00  0.00000000000E+00 -0.11317981604E+02  0.11317981604E+02  0.00000000000E+00 0.  1.
      -24    2    1    2    0    0  0.00000000000E+00  0.00000000000E+00  0.18500645848E+03  0.20764242169E+03  0.94276113652E+02 0.  0.
       11    1    3    3    0    0 -0.30471065583E+02 -0.34706928112E+02  0.11327446118E+03  0.12232808448E+03  0.00000000000E+00 0. -1.
      -12    1    3    3    0    0  0.30471065583E+02  0.34706928112E+02  0.71731997297E+02  0.85314337207E+02  0.00000000000E+00 0.  1.
</event>
<event>
 5   0  0.2392100E+01  0.7999317E+02  0.7957747E-01  0.1327583E+00
        1   -1    0    0  501    0  0.00000000000E+00  0.00000000000E+00  0.98995731594E+01  0.98995731594E+01  0.00000000000E+00 0. -1.
       -2   -1    0    0    0  501  0.00000000000E+00  0.00000000000E+00 -0.16159552135E+03  0.16159552135E+03  0.00000000000E+00 0.  1.
      -24    2    1    2    0    0  0.00000000000E+00  0.00000000000E+00 -0.15169594819E+03  0.17149509451E+03  0.79993166854E+02 0.  0.
       11    1    3    3    0    0 -0.76099100325E+01  0.39260271418E+02 -0.77281394673E+02  0.87015479112E+02  0.00000000000E+00 0. -1.
      -12    1    3    3    0    0  0.76099100325E+01 -0.39260271418E+02 -0.74414553519E+02  0.84479615399E+02  0.00000000000E+00 0.  1.
</event>
<event>
 5   0  0.2392100E+01  0.8042305E+02  0.7957747E-01  0.1326432E+00
       -2   -1    0    0    0  501  0.00000000000E+00  0.00000000000E+00  0.55750395641E+01  0.55750395641E+01  0.00000000000E+00 0.  1.
        1   -1    0    0  501    0  0.00000000000E+00  0.00000000000E+00 -0.29003681073E+03  0.29003681073E+03  0.00000000000E+00 0. -1.
      -24    2    1    2    0    0  0.00000000000E+00  0.00000000000E+00 -0.28446177116E+03  0.29561185029E+03  0.80423048807E+02 0.  0.
       11    1    3    3    0    0  0.26852764141E+02  0.28029483686E+02 -0.18082476080E+03  0.18494409160E+03  0.00000000000E+00 0. -1.
      -12    1    3    3    0    0 -0.26852764141E+02 -0.28029483686E+02 -0.10363701036E+03  0.11066775869E+03  0.00000000000E+00 0.  1.
</event>
<event>
 5   0  0.2392100E+01  0.8153408E+02  0.7957747E-01  0.1323493E+00
       -4   -1    0    0    0  501  0.00000000000E+00  0.00000000000E+00  0.24450200921E+02  0.24450200921E+02  0.00000000000E+00 0.  1.
        3   -1    0    0  501    0  0.00000000000E+00  0.00000000000E+00 -0.67972926879E+02  0.67972926879E+02  0.00000000000E+00 0. -1.
      -24    2    1    2    0    0  0.00000000000E+00  0.00000000000E+00 -0.43522725958E+02  0.92423127800E+02  0.81534084146E+02 0.  0.
       11    1    3    3    0    0  0.24731050052E+02  0.25602932598E+02 -0.44285037119E+02  0.56818126570E+02  0.00000000000E+00 0. -1.
      -12    1    3    3    0    0 -0.24731050052E+02 -0.25602932598E+02  0.76231116019E+00  0.35605001230E+02  0.00000000000E+00 0.  1.
</event>
<event>
 5   0  0.2392100E+01  0.8061436E+02  0.7957747E-01  0.1325922E+00
        1   -1    0    0  501    0  0.00000000000E+00  0.00000000000E+00  0.26654947889E+02  0.26654947889E+02  0.00000000000E+00 0. -1.
       -2   -1    0    0    0  501  0.00000000000E+00  0.00000000000E+00 -0.60951868050E+02  0.60951868050E+02  0.00000000000E+00 0.  1.
      -24    2    1    2    0    0  0.00000000000E+00  0.00000000000E+00 -0.34296920161E+02  0.87606815938E+02  0.80614362655E+02 0.  0.
       11    1    3    3    0    0 -0.11574216048E+02  0.34269877095E+02  0.21784599735E+01  0.36237172090E+02  0.00000000000E+00 0. -1.
      -12    1    3    3    0    0  0.11574216048E+02 -0.34269877095E+02 -0.36475380134E+02  0.51369643849E+02  0.00000000000E+00 0.  1.
</event>
<event>
 5   0  0.2392100E+01  0.6616425E+02  0.7957747E-01  0.1369696E+00
       -2   -1    0    0    0  501  0.00000000000E+00  0.00000000000E+00  0.47236881831E+02  0.47236881831E+02  0.00000000000E+00 0.  1.
        1   -1    0    0  501    0  0.00000000000E+00  0.00000000000E+00 -0.23168908350E+02  0.23168908350E+02  0.00000000000E+00 0. -1.
      -24    2    1    2    0    0  0.00000000000E+00  0.00000000000E+00  0.24067973481E+02  0.70405790181E+02  0.66164249739E+02 0.  0.
       11    1    3    3    0    0  0.24927280013E+02  0.52331349848E+01 -0.10430301213E+02  0.27523556710E+02  0.00000000000E+00 0. -1.
      -12    1    3    3    0    0 -0.24927280013E+02 -0.52331349848E+01  0.34498274694E+02  0.42882233471E+02  0.00000000000E+00 0.  1.
</event>
<event>
 5   0  0.2392100E+01  0.7517711E+02  0.7957747E-01  0.1341073E+00
       -2   -1    0    0    0  501  0.00000000000E+00  0.00000000000E+00  0.87826328551E+01  0.87826328551E+01  0.00000000000E+00 0.  1.
        1   -1    0    0  501    0  0.00000000000E+00  0.00000000000E+00 -0.16087425826E+03  0.16087425826E+03  0.00000000000E+00 0. -1.
      -24    2    1    2    0    0  0.00000000000E+00  0.00000000000E+00 -0.15209162541E+03  0.16965689112E+03  0.75177112107E+02 0.  0.
       11    1    3    3    0    0  0.27341668745E+02  0.34669466197E+01 -0.13372863597E+03  0.13653913229E+03  0.00000000000E+00 0. -1.
      -12    1    3    3    0    0 -0.27341668745E+02 -0.34669466197E+01 -0.18362989439E+02  0.33117758827E+02  0.00000000000E+00 0.  1.
</event>
<event>
 5   0  0.2392100E+01  0.8006938E+02  0.7957747E-01  0.1327378E+00
        1   -1    0    0  501    0  0.00000000000E+00  0.00000000000E+00  0.65428218675E+01  0.65428218675E+01  0.00000000000E+00 0. -1.
       -2   -1    0    0    0  501  0.00000000000E+00  0.00000000000E+00 -0.24496713376E+03  0.24496713376E+03  0.00000000000E+00 0.  1.
      -24    2    1    2    0    0  0.00000000000E+00  0.00000000000E+00 -0.23842431189E+03  0.25150995563E+03  0.80069377906E+02 0.  0.
       11    1    3    3    0    0  0.29226737762E+02 -0.19421306504E+02 -0.17974653047E+03  0.18313984974E+03  0.00000000000E+00 0. -1.
      -12    1    3    3    0    0 -0.29226737762E+02  0.19421306504E+02 -0.58677781422E+02  0.68370105888E+02  0.00000000000E+00 0.  1.
</event>
<event>
 5   0  0.2392100E+01  0.8053745E+02  0.7957747E-01  0.1326126E+00
       -2   -1    0    0    0  501  0.00000000000E+00  0.00000000000E+00  0.62624028207E+02  0.62624028207E+02  0.00000000000E+00 0.  1.
        1   -1    0    0  501    0  0.00000000000E+00  0.00000000000E+00 -0.25893739716E+02  0.25893739716E+02  0.00000000000E+00 0. -1.
      -24    2    1    2    0    0  0.00000000000E+00  0.00000000000E+00  0.36730288490E+02  0.88517767923E+02  0.80537451819E+02 0.  0.
       11    1    3    3    0    0 -0.25502622686E+02  0.78732803797E+01 -0.14775565140E+02  0.30507206247E+02  0.00000000000E+00 0. -1.
      -12    1    3    3    0    0  0.25502622686E+02 -0.78732803797E+01  0.51505853630E+02  0.58010561676E+02  0.00000000000E+00 0.  1.
</event>
<event>
 5   0  0.2392100E+01  0.8069718E+02  0.7957747E-01  0.1325701E+00
        1   -1    0    0  501    0  0.00000000000E+00  0.00000000000E+00  0.95511689069E+02  0.95511689069E+02  0.00000000000E+00 0. -1.
       -2   -1    0    0    0  501  0.00000000000E+00  0.00000000000E+00 -0.17045126942E+02  0.17045126942E+02  0.00000000000E+00 0.  1.
      -24    2    1    2    0    0  0.00000000000E+00  0.00000000000E+00  0.78466562127E+02  0.11255681601E+03  0.80697183709E+02 0.  0.
       11    1    3    3    0    0 -0.50795934276E+01  0.37071369808E+02  0.60290682112E+02  0.70958122004E+02  0.00000000000E+00 0. -1.
      -12    1    3    3    0    0  0.50795934276E+01 -0.37071369808E+02  0.18175880015E+02  0.41598694007E+02  0.00000000000E+00 0.  1.
</event>
<event>
 5   0  0.2392100E+01  0.8079789E+02  0.7957747E-01  0.1325434E+00
       -2   -1    0    0    0  501  0.00000000000E+00  0.00000000000E+00  0.16663754735E+02  0.16663754735E+02  0.00000000000E+00 0.  1.
        1   -1    0    0  501    0  0.00000000000E+00  0.00000000000E+00 -0.97941590483E+02  0.97941590483E+02  0.00000000000E+00 0. -1.
      -24    2    1    2    0    0  0.00000000000E+00  0.00000000000E+00 -0.81277835748E+02  0.11460534522E+03  0.80797887155E+02 0.  0.
       11    1    3    3    0    0  0.19914613759E+02 -0.25557174926E+02 -0.74867061061E+02  0.81577189601E+02  0.00000000000E+00 0. -1.
      -12    1    3    3    0    0 -0.19914613759E+02  0.25557174926E+02 -0.64107746871E+01  0.33028155617E+02  0.00000000000E+00 0.  1.
</event>
<event>
 5   0  0.2392100E+01  0.7954759E+02  0.7957747E-01  0.1328786E+00
        3   -1    0    0  501    0  0.00000000000E+00  0.00000000000E+00  0.16875340951E+03  0.16875340951E+03  0.00000000000E+00 0. -1.
       -4   -1    0    0    0  501  0.00000000000E+00  0.00000000000E+00 -0.93743566836E+01  0.93743566836E+01  0.00000000000E+00 0.  1.
      -24    2    1    2    0    0  0.00000000000E+00  0.00000000000E+00  0.15937905283E+03  0.17812776620E+03  0.79547587075E+02 0.  0.
       11    1    3    3    0    0 -0.18514465291E+02  0.26331928215E+02  0.13200388355E+03  0.13587192918E+03  0.00000000000E+00 0. -1.
      -12    1    3    3    0    0  0.18514465291E+02 -0.26331928215E+02  0.27375169285E+02  0.42255837016E+02  0.00000000000E+00 0.  1.
</event>
<event>
 5   0  0.2392100E+01  0.7975122E+02  0.7957747E-01  0.1328235E+00
        3   -1    0    0  501    0  0.00000000000E+00  0.00000000000E+00  0.54669785351E+01  0.54669785351E+01  0.00000000000E+00 0. -1.
       -4   -1    0    0    0  501  0.00000000000E+00  0.00000000000E+00 -0.29084884518E+03  0.29084884518E+03  0.00000000000E+00 0.  1.
      -24    2    1    2    0    0  0.00000000000E+00  0.00000000000E+00 -0.28538186664E+03  0.29631582371E+03  0.79751223026E+02 0.  0.
       11    1    3    3    0    0 -0.33694785582E+02 -0.93073557672E+01 -0.71405666493E+02  0.79503048081E+02  0.00000000000E+00 0. -1.
      -12    1    3    3    0    0  0.33694785582E+02  0.93073557672E+01 -0.21397620015E+03  0.21681277563E+03  0.00000000000E+00 0.  1.
</event>
<event>
 5   0  0.2392100E+01  0.8647459E+02  0.7957747E-01  0.1311037E+00
       -2   -1    0    0    0  501  0.00000000000E+00  0.00000000000E+00  0.39903439338E+03  0.39903439338E+03  0.00000000000E+00 0.  1.
        1   -1    0    0  501    0  0.00000000000E+00  0.00000000000E+00 -0.46849685447E+01  0.46849685447E+01  0.00000000000E+00 0. -1.
      -24    2    1    2    0    0  0.00000000000E+00  0.00000000000E+00  0.39434942483E+03  0.40371936192E+03  0.86474587741E+02 0.  0.
       11    1    3    3    0    0  0.37940671611E+02 -0.57490050849E+01  0.10416218342E+03  0.11100588307E+03  0.00000000000E+00 0. -1.
      -12    1    3    3    0    0 -0.37940671611E+02  0.57490050849E+01  0.29018724142E+03  0.29271347885E+03  0.00000000000E+00 0.  1.
</event>
<event>
 5   0  0.2392100E+01  0.9297896E+02  0.7957747E-01  0.1296002E+00
       -2   -1    0    0    0  501  0.00000000000E+00  0.00000000000E+00  0.23851187802E+03  0.23851187802E+03  0.00000000000E+00 0.  1.
        1   -1    0    0  501    0  0.00000000000E+00  0.00000000000E+00 -0.90614852037E+01  0.90614852037E+01  0.00000000000E+00 0. -1.
      -24    2    1    2    0    0  0.00000000000E+00  0.00000000000E+00  0.22945039282E+03  0.24757336323E+03  0.92978962214E+02 0.  0.
       11    1    3    3    0    0  0.15797692696E+02  0.36906075268E+02  0.52299858334E+02  0.65931029629E+02  0.00000000000E+00 0. -1.
      -12    1    3    3    0    0 -0.15797692696E+02 -0.36906075268E+02  0.17715053449E+03  0.18164233360E+03  0.00000000000E+00 0.  1.
</event>
<event>
 5   0  0.2392100E+01  0.7967380E+02  0.7957747E-01  0.1328444E+00
        1   -1    0    0  501    0  0.00000000000E+00  0.00000000000E+00  0.11126362859E+02  0.11126362859E+02  0.00000000000E+00 0. -1.
       -2   -1    0    0    0  501  0.00000000000E+00  0.00000000000E+00 -0.14263228432E+03  0.14263228432E+03  0.00000000000E+00 0.  1.
      -24    2    1    2    0    0  0.00000000000E+00  0.00000000000E+00 -0.13150592146E+03  0.15375864718E+03  0.79673798723E+02 0.  0.
       11    1    3    3    0    0  0.31822534497E+02  0.68841101679E+01 -0.21453968854E+02  0.38991504898E+02  0.00000000000E+00 0. -1.
      -12    1    3    3    0    0 -0.31822534497E+02 -0.68841101679E+01 -0.11005195261E+03  0.11476714228E+03  0.00000000000E+00 0.  1.
</event>
<event>
 5   0  0.2392100E+01  0.8011489E+02  0.7957747E-01  0.1327256E+00
        1   -1    0    0  501    0  0.00000000000E+00  0.00000000000E+00  0.16517128068E+03  0.16517128068E+03  0.00000000000E+00 0. -1.
       -2   -1    0    0    0  501  0.00000000000E+00  0.00000000000E+00 -0.97147578645E+01  0.97147578645E+01  0.00000000000E+00 0.  1.
      -24    2    1    2    0    0  0.00000000000E+00  0.00000000000E+00  0.15545652282E+03  0.17488603855E+03  0.80114892448E+02 0.  0.
       11    1    3    3    0    0 -0.36055085593E+02  0.42195077260E+01  0.11469837696E+03  0.12030582330E+03  0.00000000000E+00 0. -1.
      -12    1    3    3    0    0  0.36055085593E+02 -0.42195077260E+01  0.40758145856E+02  0.54580215245E+02  0.00000000000E+00 0.  1.
</event>
<event>
 5   0  0.2392100E+01  0.7875577E+02  0.7957747E-01  0.1330944E+00
        1   -1    0    0  501    0  0.00000000000E+00  0.00000000000E+00  0.54899644480E+02  0.54899644480E+02  0.00000000000E+00 0. -1.
       -2   -1    0    0    0  501  0.00000000000E+00  0.00000000000E+00 -0.28244584314E+02  0.28244584314E+02  0.00000000000E+00 0.  1.
      -24    2    1    2    0    0  0.00000000000E+00  0.00000000000E+00  0.26655060166E+02  0.83144228794E+02  0.78755765181E+02 0.  0.
       11    1    3    3    0    0  0.32618084695E+02 -0.14179615143E+02  0.31169448715E+02  0.47292023301E+02  0.00000000000E+00 0. -1.
      -12    1    3    3    0    0 -0.32618084695E+02  0.14179615143E+02 -0.45143885485E+01  0.35852205493E+02  0.00000000000E+00 0.  1.
</event>
<event>
 5   0  0.2392100E+01  0.8160457E+02  0.7957747E-01  0.1323308E+00
       -2   -1    0    0    0  501  0.00000000000E+00  0.00000000000E+00  0.40415257897E+02  0.40415257897E+02  0.00000000000E+00 0.  1.
        1   -1    0    0  501    0  0.00000000000E+00  0.00000000000E+00 -0.41193019950E+02  0.41193019950E+02  0.00000000000E+00 0. -1.
      -24    2    1    2    0    0  0.00000000000E+00  0.00000000000E+00 -0.77776205324E+00  0.81608277847E+02  0.81604571559E+02 0.  0.
       11    1    3    3    0    0  0.88915878216E+01  0.39561516637E+02  0.41558376922E+01  0.40760825796E+02  0.00000000000E+00 0. -1.
      -12    1    3    3    0    0 -0.88915878216E+01 -0.39561516637E+02 -0.49335997455E+01  0.40847452051E+02  0.00000000000E+00 0.  1.
</event>
<event>
 5   0  0.2392100E+01  0.8045074E+02  0.7957747E-01  0.1326358E+00
       -2   -1    0    0    0  501  0.00000000000E+00  0.00000000000E+00  0.28595365998E+02  0.28595365998E+02  0.00000000000E+00 0.  1.
        1   -1    0    0  501    0  0.00000000000E+00  0.00000000000E+00 -0.56585412739E+02  0.56585412739E+02  0.00000000000E+00 0. -1.
      -24    2    1    2    0    0  0.00000000000E+00  0.00000000000E+00 -0.27990046740E+02  0.85180778737E+02  0.80450744867E+02 0.  0.
       11    1    3    3    0    0  0.22109339537E+01  0.33632130696E+02 -0.37242057590E+02  0.50229267341E+02  0.00000000000E+00 0. -1.
      -12    1    3    3    0    0 -0.22109339537E+01 -0.33632130696E+02  0.92520108491E+01  0.34951511396E+02  0.00000000000E+00 0.  1.
</event>
<event>
 5   0  0.2392100E+01  0.8100858E+02  0.7957747E-01  0.1324876E+00
       -2   -1    0    0    0  501  0.00000000000E+00  0.00000000000E+00  0.40203549632E+02  0.40203549632E+02  0.00000000000E+00 0.  1.
        1   -1    0    0  501    0  0.00000000000E+00  0.00000000000E+00 -0.40807284011E+02  0.40807284011E+02  0.00000000000E+00 0. -1.
      -24    2    1    2    0    0  0.00000000000E+00  0.00000000000E+00 -0.60373437907E+00  0.81010833643E+02  0.81008583942E+02 0.  0.
       11    1    3    3    0    0  0.18668119071E+02  0.15450659891E+02 -0.32758524674E+02  0.40747300519E+02  0.00000000000E+00 0. -1.
      -12    1    3    3    0    0 -0.18668119071E+02 -0.15450659891E+02  0.32154790295E+02  0.40263533124E+02  0.00000000000E+00 0.  1.
</event>
<event>
 5   0  0.2392100E+01  0.8254491E+02  0.7957747E-01  0.1320864E+00
       -4   -1    0    0    0  501  0.00000000000E+00  0.00000000000E+00  0.11885438874E+02  0.11885438874E+02  0.00000000000E+00 0.  1.
        3   -1    0    0  501    0  0.00000000000E+00  0.00000000000E+00 -0.14331952921E+03  0.14331952921E+03  0.00000000000E+00 0. -1.
      -24    2    1    2    0    0  0.00000000000E+00  0.00000000000E+00 -0.13143409033E+03  0.15520496808E+03  0.82544909084E+02 0.  0.
       11    1    3    3    0    0 -0.30059651013E+02  0.87262467636E+01 -0.11629837713E+03  0.12043688192E+03  0.00000000000E+00 0. -1.
      -12    1    3    3    0    0  0.30059651013E+02 -0.87262467636E+01 -0.15135713199E+02  0.34768086166E+02  0.00000000000E+00 0.  1.
</event>
<event>
 5   0  0.2392100E+01  0.7998825E+02  0.7957747E-01  0.1327596E+00
       -2   -1    0    0    0  501  0.00000000000E+00  0.00000000000E+00  0.88296137851E+02  0.88296137851E+02  0.00000000000E+00 0.  1.
        1   -1    0    0  501    0  0.00000000000E+00  0.00000000000E+00 -0.18115515801E+02  0.18115515801E+02  0.00000000000E+00 0. -1.
      -24    2    1    2    0    0  0.00000000000E+00  0.00000000000E+00  0.70180622050E+02  0.10641165365E+03  0.79988251147E+02 0.  0.
       11    1    3    3    0    0 -0.25347482503E+02 -0.42645018403E+01 -0.56721990462E+01  0.26322133029E+02  0.00000000000E+00 0. -1.
      -12    1    3    3    0    0  0.25347482503E+02  0.42645018403E+01  0.75852821096E+02  0.80089520622E+02  0.00000000000E+00 0.  1.
</event>
<event>
 5   0  0.2392100E+01  0.8254499E+02  0.7957747E-01  0.1320864E+00
       -2   -1    0    0    0  501  0.00000000000E+00  0.00000000000E+00  0.69872953976E+01  0.69872953976E+01  0.00000000000E+00 0.  1.
        1   -1    0    0  501    0  0.00000000000E+00  0.00000000000E+00 -0.24378803947E+03  0.24378803947E+03  0.00000000000E+00 0. -1.
      -24    2    1    2    0    0  0.00000000000E+00  0.00000000000E+00 -0.23680074407E+03  0.25077533486E+03  0.82544994909E+02 0.  0.
       11    1    3    3    0    0  0.33971494459E+02  0.94885220208E+01 -0.18351130343E+03  0.18687025706E+03  0.00000000000E+00 0. -1.
      -12    1    3    3    0    0 -0.33971494459E+02 -0.94885220208E+01 -0.53289440638E+02  0.63905077807E+02  0.00000000000E+00 0.  1.
</event>
<event>
 5   0  0.2392100E+01  0.8235560E+02  0.7957747E-01  0.1321353E+00
        1   -1    0    0  501    0  0.00000000000E+00  0.00000000000E+00  0.56282620419E+01  0.56282620419E+01  0.00000000000E+00 0. -1.
       -2   -1    0    0    0  501  0.00000000000E+00  0.00000000000E+00 -0.30126729824E+03  0.30126729824E+03  0.00000000000E+00 0.  1.
      -24    2    1    2    0    0  0.00000000000E+00  0.00000000000E+00 -0.29563903619E+03  0.30689556028E+03  0.82355602095E+02 0.  0.
       11    1    3    3    0    0 -0.13773443241E+02  0.13442590716E+02 -0.12163762610E+02  0.22767698713E+02  0.00000000000E+00 0. -1.
      -12    1    3    3    0    0  0.13773443241E+02 -0.13442590716E+02 -0.28347527359E+03  0.28412786157E+03  0.00000000000E+00 0.  1.
</event>
<event>
 5   0  0.2392100E+01  0.1037831E+03  0.7957747E-01  0.1273857E+00
       -4   -1    0    0    0  501  0.00000000000E+00  0.00000000000E+00  0.25956090407E+02  0.25956090407E+02  0.00000000000E+00 0.  1.
        3   -1    0    0  501    0  0.00000000000E+00  0.00000000000E+00 -0.10374178133E+03  0.10374178133E+03  0.00000000000E+00 0. -1.
      -24    2    1    2    0    0  0.00000000000E+00  0.00000000000E+00 -0.77785690925E+02  0.12969787174E+03  0.10378306327E+03 0.  0.
       11    1    3    3    0    0 -0.48046341045E+02  0.18182922042E+02 -0.29738278139E+02  0.59358527007E+02  0.00000000000E+00 0. -1.
      -12    1    3    3    0    0  0.48046341045E+02 -0.18182922042E+02 -0.48047412785E+02  0.70339344731E+02  0.00000000000E+00 0.  1.
</event>
<event>
 5   0  0.2392100E+01  0.8034744E+02  0.7957747E-01  0.1326634E+00
       -2   -1    0    0    0  501  0.00000000000E+00  0.00000000000E+00  0.40695807999E+01  0.40695807999E+01  0.00000000000E+00 0.  1.
        1   -1    0    0  501    0  0.00000000000E+00  0.00000000000E+00 -0.39658327346E+03  0.39658327346E+03  0.00000000000E+00 0. -1.
      -24    2    1    2    0    0  0.00000000000E+00  0.00000000000E+00 -0.39251369266E+03  0.40065285426E+03  0.80347437426E+02 0.  0.
       11    1    3    3    0    0 -0.12327723412E+02 -0.37103203207E+02 -0.15020053927E+03  0.15520574233E+03  0.00000000000E+00 0. -1.
      -12    1    3    3    0    0  0.12327723412E+02  0.37103203207E+02 -0.24231315338E+03  0.24544711193E+03  0.00000000000E+00 0.  1.
</event>
<event>
 5   0  0.2392100E+01  0.8239368E+02  0.7957747E-01  0.1321255E+00
       -2   -1    0    0    0  501  0.00000000000E+00  0.00000000000E+00  0.10561064794E+03  0.10561064794E+03  0.00000000000E+00 0.  1.
        1   -1    0    0  501    0  0.00000000000E+00  0.00000000000E+00 -0.16070156075E+02  0.16070156075E+02  0.00000000000E+00 0. -1.
      -24    2    1    2    0    0  0.00000000000E+00  0.00000000000E+00  0.89540491864E+02  0.12168080401E+03  0.82393679262E+02 0.  0.
       11    1    3    3    0    0  0.16107275105E+02 -0.73060892005E+01 -0.10177783460E+02  0.20406139441E+02  0.00000000000E+00 0. -1.
      -12    1    3    3    0    0 -0.16107275105E+02  0.73060892005E+01  0.99718275324E+02  0.10127466457E+03  0.00000000000E+00 0.  1.
</event>
<event>
 5   0  0.2392100E+01  0.8196279E+02  0.7957747E-01  0.1322373E+00
       -2   -1    0    0    0  501  0.00000000000E+00  0.00000000000E+00  0.23735244978E+02  0.23735244978E+02  0.00000000000E+00 0.  1.
        1   -1    0    0  501    0  0.00000000000E+00  0.00000000000E+00 -0.70758684402E+02  0.70758684402E+02  0.00000000000E+00 0. -1.
      -24    2    1    2    0    0  0.00000000000E+00  0.00000000000E+00 -0.47023439423E+02  0.94493929380E+02  0.81962789329E+02 0.  0.
       11    1    3    3    0    0  0.25765429779E+02 -0.18017129831E+02 -0.53817559214E+02  0.62328196017E+02  0.00000000000E+00 0. -1.
      -12    1    3    3    0    0 -0.25765429779E+02  0.18017129831E+02  0.67941197905E+01  0.32165733363E+02  0.00000000000E+00 0.  1.
</event>
<event>
 5   0  0.2392100E+01  0.8046254E+02  0.7957747E-01  0.1326326E+00
        1   -1    0    0  501    0  0.00000000000E+00  0.00000000000E+00  0.98337694948E+02  0.98337694948E+02  0.00000000000E+00 0. -1.
       -2   -1    0    0    0  501  0.00000000000E+00  0.00000000000E+00 -0.16459152281E+02  0.16459152281E+02  0.00000000000E+00 0.  1.
      -24    2    1    2    0    0  0.00000000000E+00  0.00000000000E+00  0.81878542668E+02  0.11479684723E+03  0.80462540255E+02 0.  0.
       11    1    3    3    0    0  0.13359533259E+02  0.22050716029E+02  0.85002353507E+02  0.88826298516E+02  0.00000000000E+00 0. -1.
      -12    1    3    3    0    0 -0.13359533259E+02 -0.22050716029E+02 -0.31238108393E+01  0.25970548713E+02  0.00000000000E+00 0.  1.
</event>
<event>
 5   0  0.2392100E+01  0.8148323E+02  0.7957747E-01  0.1323626E+00
       -4   -1    0    0    0  501  0.00000000000E+00  0.00000000000E+00  0.95444888745E+02  0.95444888745E+02  0.00000000000E+00 0.  1.
        3   -1    0    0  501    0  0.00000000000E+00  0.00000000000E+00 -0.17390971871E+02  0.17390971871E+02  0.00000000000E+00 0. -1.
      -24    2    1    2    0    0  0.00000000000E+00  0.00000000000E+00  0.78053916874E+02  0.11283586062E+03  0.81483234481E+02 0.  0.
       11    1    3    3    0    0  0.24532790738E+02  0.30606894252E+02  0.23779372351E+02  0.45870451781E+02  0.00000000000E+00 0. -1.
      -12    1    3    3    0    0 -0.24532790738E+02 -0.30606894252E+02  0.54274544524E+02  0.66965408835E+02  0.00000000000E+00 0.  1.
</event>
<event>
 5   0  0.2392100E+01  0.8546755E+02  0.7957747E-01  0.1313498E+00
       -2   -1    0    0    0  501  0.00000000000E+00  0.00000000000E+00  0.59856688140E+02  0.59856688140E+02  0.00000000000E+00 0.  1.
        1   -1    0    0  501    0  0.00000000000E+00  0.00000000000E+00 -0.30509131460E+02  0.30509131460E+02  0.00000000000E+00 0. -1.
      -24    2    1    2    0    0  0.00000000000E+00  0.00000000000E+00  0.29347556680E+02  0.90365819600E+02  0.85467550971E+02 0.  0.
       11    1    3    3    0    0 -0.25099902900E+01 -0.32420351456E+02 -0.14642482847E+02  0.35662046263E+02  0.00000000000E+00 0. -1.
      -12    1    3    3    0    0  0.25099902900E+01  0.32420351456E+02  0.43990039527E+02  0.54703773337E+02  0.00000000000E+00 0.  1.
</event>
<event>
 5   0  0.2392100E+01  0.7993246E+02  0.7957747E-01  0.1327746E+00
       -2   -1    0    0    0  501  0.00000000000E+00  0.00000000000E+00  0.93012209643E+03  0.93012209643E+03  0.00000000000E+00 0.  1.
        1   -1    0    0  501    0  0.00000000000E+00  0.00000000000E+00 -0.17173009257E+01  0.17173009257E+01  0.00000000000E+00 0. -1.
      -24    2    1    2    0    0  0.00000000000E+00  0.00000000000E+00  0.92840479550E+03  0.93183939735E+03  0.79932459919E+02 0.  0.
       11    1    3    3    0    0  0.23228176426E+02  0.22221709824E+02  0.18735718173E+03  0.19009488713E+03  0.00000000000E+00 0. -1.
      -12    1    3    3    0    0 -0.23228176426E+02 -0.22221709824E+02  0.74104761377E+03  0.74174451022E+03  0.00000000000E+00 0.  1.
</event>
<event>
 5   0  0.2392100E+01  0.7322447E+02  0.7957747E-01  0.1346873E+00
        1   -1    0    0  501    0  0.00000000000E+00  0.00000000000E+00  0.14305916489E+03  0.14305916489E+03  0.00000000000E+00 0. -1.
       -2   -1    0    0    0  501  0.00000000000E+00  0.00000000000E+00 -0.93699392595E+01  0.93699392595E+01  0.00000000000E+00 0.  1.
      -24    2    1    2    0    0  0.00000000000E+00  0.00000000000E+00  0.13368922563E+03  0.15242910415E+03  0.73224468192E+02 0.  0.
       11    1    3    3    0    0  0.17118439127E+02 -0.19057048966E+02  0.12129701541E+03  0.12397248897E+03  0.00000000000E+00 0. -1.
      -12    1    3    3    0    0 -0.17118439127E+02  0.19057048966E+02  0.12392210220E+02  0.28456615181E+02  0.00000000000E+00 0.  1.
</event>
<event>
 5   0  0.2392100E+01  0.7822114E+02  0.7957747E-01  0.1332418E+00
       -2   -1    0    0    0  501  0.00000000000E+00  0.00000000000E+00  0.27600555928E+02  0.27600555928E+02  0.00000000000E+00 0.  1.
        1   -1    0    0  501    0  0.00000000000E+00  0.00000000000E+00 -0.55420499200E+02  0.55420499200E+02  0.00000000000E+00 0. -1.
      -24    2    1    2    0    0  0.00000000000E+00  0.00000000000E+00 -0.27819943272E+02  0.83021055129E+02  0.78221137495E+02 0.  0.
       11    1    3    3    0    0  0.34395329254E+02 -0.16461156285E+02 -0.23140065945E+02  0.44603486328E+02  0.00000000000E+00 0. -1.
      -12    1    3    3    0    0 -0.34395329254E+02  0.16461156285E+02 -0.46798773268E+01  0.38417568800E+02  0.00000000000E+00 0.  1.
</event>
<event>
 5   0  0.2392100E+01  0.8529671E+02  0.7957747E-01  0.1313920E+00
       -2   -1    0    0    0  501  0.00000000000E+00  0.00000000000E+00  0.29058652400E+02  0.29058652400E+02  0.00000000000E+00 0.  1.
        1   -1    0    0  501    0  0.00000000000E+00  0.00000000000E+00 -0.62593481882E+02  0.62593481882E+02  0.00000000000E+00 0. -1.
      -24    2    1    2    0    0  0.00000000000E+00  0.00000000000E+00 -0.33534829482E+02  0.91652134282E+02  0.85296711133E+02 0.  0.
       11    1    3    3    0    0  0.57222135641E+01  0.34118543879E+02 -0.43566973607E+02  0.55631825008E+02  0.00000000000E+00 0. -1.
      -12    1    3    3    0    0 -0.57222135641E+01 -0.34118543879E+02  0.10032144125E+02  0.36020309274E+02  0.00000000000E+00 0.  1.
</event>
<event>
 5   0  0.2392100E+01  0.7442379E+02  0.7957747E-01  0.1343286E+00
       -2   -1    0    0    0  501  0.00000000000E+00  0.00000000000E+00  0.61460605540E+02  0.61460605540E+02  0.00000000000E+00 0.  1.
        1   -1    0    0  501    0  0.00000000000E+00  0.00000000000E+00 -0.22530285752E+02  0.22530285752E+02  0.00000000000E+00 0. -1.
      -24    2    1    2    0    0  0.00000000000E+00  0.00000000000E+00  0.38930319789E+02  0.83990891292E+02  0.74423786663E+02 0.  0.
       11    1    3    3    0    0  0.14933316466E+02 -0.29719517006E+02  0.63254154282E+00  0.33266405585E+02  0.00000000000E+00 0. -1.
      -12    1    3    3    0    0 -0.14933316466E+02  0.29719517006E+02  0.38297778246E+02  0.50724485707E+02  0.00000000000E+00 0.  1.
</event>
<event>
 5   0  0.2392100E+01  0.8338911E+02  0.7957747E-01  0.1318702E+00
        1   -1    0    0  501    0  0.00000000000E+00  0.00000000000E+00  0.63332316896E+03  0.63332316896E+03  0.00000000000E+00 0. -1.
       -2   -1    0    0    0  501  0.00000000000E+00  0.00000000000E+00 -0.27449430301E+01  0.27449430301E+01  0.00000000000E+00 0.  1.
      -24    2    1    2    0    0  0.00000000000E+00  0.00000000000E+00  0.63057822593E+03  0.63606811199E+03  0.83389112442E+02 0.  0.
       11    1    3    3    0    0 -0.10341167170E+02 -0.36424194991E+02  0.18212615215E+03  0.18602042096E+03  0.00000000000E+00 0. -1.
      -12    1    3    3    0    0  0.10341167170E+02  0.36424194991E+02  0.44845207378E+03  0.45004769103E+03  0.00000000000E+00 0.  1.
</event>
<event>
 5   0  0.2392100E+01  0.8011105E+02  0.7957747E-01  0.1327267E+00
        1   -1    0    0  501    0  0.00000000000E+00  0.00000000000E+00  0.24964274496E+03  0.24964274496E+03  0.00000000000E+00 0. -1.
       -2   -1    0    0    0  501  0.00000000000E+00  0.00000000000E+00 -0.64269651087E+01  0.64269651087E+01  0.00000000000E+00 0.  1.
      -24    2    1    2    0    0  0.00000000000E+00  0.00000000000E+00  0.24321577985E+03  0.25606971007E+03  0.80111053207E+02 0.  0.
       11    1    3    3    0    0 -0.98580295979E-01 -0.39948624283E+02  0.11226526921E+03  0.11916120581E+03  0.00000000000E+00 0. -1.
      -12    1    3    3    0    0  0.98580295979E-01  0.39948624283E+02  0.13095051064E+03  0.13690850425E+03  0.00000000000E+00 0.  1.
</event>
<event>
 5   0  0.2392100E+01  0.8005262E+02  0.7957747E-01  0.1327423E+00
       -2   -1    0    0    0  501  0.00000000000E+00  0.00000000000E+00  0.13142773171E+02  0.13142773171E+02  0.00000000000E+00 0.  1.
        1   -1    0    0  501    0  0.00000000000E+00  0.00000000000E+00 -0.12190011392E+03  0.12190011392E+03  0.00000000000E+00 0. -1.
      -24    2    1    2    0    0  0.00000000000E+00  0.00000000000E+00 -0.10875734074E+03  0.13504288709E+03  0.80052621363E+02 0.  0.
       11    1    3    3    0    0  0.17474991253E+02  0.13158510272E+02 -0.11092428092E+03  0.11306068198E+03  0.00000000000E+00 0. -1.
      -12    1    3    3    0    0 -0.17474991253E+02 -0.13158510272E+02  0.21669401721E+01  0.21982205112E+02  0.00000000000E+00 0.  1.
</event>
<event>
 5   0  0.2392100E+01  0.8157766E+02  0.7957747E-01  0.1323378E+00
        1   -1    0    0  501    0  0.00000000000E+00  0.00000000000E+00  0.83563808579E+02  0.83563808579E+02  0.00000000000E+00 0. -1.
       -2   -1    0    0    0  501  0.00000000000E+00  0.00000000000E+00 -0.19909679289E+02  0.19909679289E+02  0.00000000000E+00 0.  1.
      -24    2    1    2    0    0  0.00000000000E+00  0.00000000000E+00  0.63654129290E+02  0.10347348787E+03  0.81577659417E+02 0.  0.
       11    1    3    3    0    0  0.26625415168E+02 -0.30898072457E+02  0.31378589737E+02  0.51460854135E+02  0.00000000000E+00 0. -1.
      -12    1    3    3    0    0 -0.26625415168E+02  0.30898072457E+02  0.32275539554E+02  0.52012633734E+02  0.00000000000E+00 0.  1.
</event>
<event>
 5   0  0.2392100E+01  0.7970129E+02  0.7957747E-01  0.1328370E+00
        1   -1    0    0  501    0  0.00000000000E+00  0.00000000000E+00  0.13881842514E+02  0.13881842514E+02  0.00000000000E+00 0. -1.
       -2   -1    0    0    0  501  0.00000000000E+00  0.00000000000E+00 -0.11439936961E+03  0.11439936961E+03  0.00000000000E+00 0.  1.
      -24    2    1    2    0    0  0.00000000000E+00  0.00000000000E+00 -0.10051752710E+03  0.12828121213E+03  0.79701293155E+02 0.  0.
       11    1    3    3    0    0  0.82210729747E+01 -0.72031476127E+01  0.11422014271E+02  0.15809294304E+02  0.00000000000E+00 0. -1.
      -12    1    3    3    0    0 -0.82210729747E+01  0.72031476127E+01 -0.11193954137E+03  0.11247191782E+03  0.00000000000E+00 0.  1.
</event>
<event>
 5   0  0.2392100E+01  0.8022429E+02  0.7957747E-01  0.1326963E+00
        3   -1    0    0  501    0  0.00000000000E+00  0.00000000000E+00  0.15627265847E+03  0.15627265847E+03  0.00000000000E+00 0. -1.
       -4   -1    0    0    0  501  0.00000000000E+00  0.00000000000E+00 -0.10296005748E+02  0.10296005748E+02  0.00000000000E+00 0.  1.
      -24    2    1    2    0    0  0.00000000000E+00  0.00000000000E+00  0.14597665273E+03  0.16656866422E+03  0.80224290334E+02 0.  0.
       11    1    3    3    0    0 -0.35107768094E+02  0.17244221945E+02  0.91450433050E+02  0.99464065250E+02  0.00000000000E+00 0. -1.
      -12    1    3    3    0    0  0.35107768094E+02 -0.17244221945E+02  0.54526219677E+02  0.67104598973E+02  0.00000000000E+00 0.  1.
</event>
<event>
 5   0  0.2392100E+01  0.7976556E+02  0.7957747E-01  0.1328196E+00
        1   -1    0    0  501    0  0.00000000000E+00  0.00000000000E+00  0.18563973765E+02  0.18563973765E+02  0.00000000000E+00 0. -1.
       -2   -1    0    0    0  501  0.00000000000E+00  0.00000000000E+00 -0.85684022745E+02  0.85684022745E+02  0.00000000000E+00 0.  1.
      -24    2    1    2    0    0  0.00000000000E+00  0.00000000000E+00 -0.67120048979E+02  0.10424799651E+03  0.79765555231E+02 0.  0.
       11    1    3    3    0    0 -0.35627559635E+02 -0.64452830004E+01 -0.55420212017E+02  0.66198675051E+02  0.00000000000E+00 0. -1.
      -12    1    3    3    0    0  0.35627559635E+02  0.64452830004E+01 -0.11699836962E+02  0.38049321459E+02  0.00000000000E+00 0.  1.
</event>
<event>
 5   0  0.2392100E+01  0.7984905E+02  0.7957747E-01  0.1327971E+00
        1   -1    0    0  501    0  0.00000000000E+00  0.00000000000E+00  0.13273700531E+03  0.13273700531E+03  0.00000000000E+00 0. -1.
       -2   -1    0    0    0  501  0.00000000000E+00  0.00000000000E+00 -0.12008466031E+02  0.12008466031E+02  0.00000000000E+00 0.  1.
      -24    2    1    2    0    0  0.00000000000E+00  0.00000000000E+00  0.12072853928E+03  0.14474547134E+03  0.79849053079E+02 0.  0.
       11    1    3    3    0    0  0.21608076585E+02  0.31128826246E+02  0.83154009336E+02  0.91381081553E+02  0.00000000000E+00 0. -1.
      -12    1    3    3    0    0 -0.21608076585E+02 -0.31128826246E+02  0.37574529945E+02  0.53364389791E+02  0.00000000000E+00 0.  1.
</event>
<event>
 5   0  0.2392100E+01  0.8086693E+02  0.7957747E-01  0.1325251E+00
        1   -1    0    0  501    0  0.00000000000E+00  0.00000000000E+00  0.10938481181E+03  0.10938481181E+03  0.00000000000E+00 0. -1.
       -2   -1    0    0    0  501  0.00000000000E+00  0.00000000000E+00 -0.14945995759E+02  0.14945995759E+02  0.00000000000E+00 0.  1.
      -24    2    1    2    0    0  0.00000000000E+00  0.00000000000E+00  0.94438816047E+02  0.12433080756E+03  0.80866926077E+02 0.  0.
       11    1    3    3    0    0  0.30691250293E+01  0.27952757548E+02  0.91887960155E+02  0.96094606531E+02  0.00000000000E+00 0. -1.
      -12    1    3    3    0    0 -0.30691250293E+01 -0.27952757548E+02  0.25508558922E+01  0.28236201033E+02  0.00000000000E+00 0.  1.
</event>
<event>
 5   0  0.2392100E+01  0.7909136E+02  0.7957747E-01  0.1330026E+00
        1   -1    0    0  501    0  0.00000000000E+00  0.00000000000E+00  0.92232543923E+02  0.92232543923E+02  0.00000000000E+00 0. -1.
       -2   -1    0    0    0  501  0.00000000000E+00  0.00000000000E+00 -0.16955627144E+02  0.16955627144E+02  0.00000000000E+00 0.  1.
      -24    2    1    2    0    0  0.00000000000E+00  0.00000000000E+00  0.75276916780E+02  0.10918817107E+03  0.79091355413E+02 0.  0.
       11    1    3    3    0    0  0.17693717463E+02 -0.27247601653E+01  0.86318005954E+02  0.88154921062E+02  0.00000000000E+00 0. -1.
      -12    1    3    3    0    0 -0.17693717463E+02  0.27247601653E+01 -0.11041089174E+02  0.21033250005E+02  0.00000000000E+00 0.  1.
</event>
<event>
 5   0  0.2392100E+01  0.8347147E+02  0.7957747E-01  0.1318492E+00
       -2   -1    0    0    0  501  0.00000000000E+00  0.00000000000E+00  0.43993901144E+02  0.43993901144E+02  0.00000000000E+00 0.  1.
        1   -1    0    0  501    0  0.00000000000E+00  0.00000000000E+00 -0.39593478580E+02  0.39593478580E+02  0.00000000000E+00 0. -1.
      -24    2    1    2    0    0  0.00000000000E+00  0.00000000000E+00  0.44004225643E+01  0.83587379723E+02  0.83471470158E+02 0.  0.
       11    1    3    3    0    0  0.80027092006E+01  0.61013490820E+01 -0.38360376148E+02  0.39658394740E+02  0.00000000000E+00 0. -1.
      -12    1    3    3    0    0 -0.80027092006E+01 -0.61013490820E+01  0.42760798712E+02  0.43928984983E+02  0.00000000000E+00 0.  1.
</event>
<event>
 5   0  0.2392100E+01  0.8077400E+02  0.7957747E-01  0.1325497E+00
       -2   -1    0    0    0  501  0.00000000000E+00  0.00000000000E+00  0.48799848474E+01  0.48799848474E+01  0.00000000000E+00 0.  1.
        1   -1    0    0  501    0  0.00000000000E+00  0.00000000000E+00 -0.33424484161E+03  0.33424484161E+03  0.00000000000E+00 0. -1.
      -24    2    1    2    0    0  0.00000000000E+00  0.00000000000E+00 -0.32936485676E+03  0.33912482646E+03  0.80773999836E+02 0.  0.
       11    1    3    3    0    0  0.34934267661E+02 -0.16131518310E+02 -0.21618495952E+03  0.21958270802E+03  0.00000000000E+00 0. -1.
      -12    1    3    3    0    0 -0.34934267661E+02  0.16131518310E+02 -0.11317989724E+03  0.11954211844E+03  0.00000000000E+00 0.  1.
</event>
<event>
 5   0  0.2392100E+01  0.7993229E+02  0.7957747E-01  0.1327747E+00
        1   -1    0    0  501    0  0.00000000000E+00  0.00000000000E+00  0.29006619290E+03  0.29006619290E+03  0.00000000000E+00 0. -1.
       -2   -1    0    0    0  501  0.00000000000E+00  0.00000000000E+00 -0.55066486879E+01  0.55066486879E+01  0.00000000000E+00 0.  1.
      -24    2    1    2    0    0  0.00000000000E+00  0.00000000000E+00  0.28455954421E+03  0.29557284159E+03  0.79932286857E+02 0.  0.
       11    1    3    3    0    0 -0.19083761051E+02 -0.33905517236E+02  0.17607332503E+03  0.18032079698E+03  0.00000000000E+00 0. -1.
      -12    1    3    3    0    0  0.19083761051E+02  0.33905517236E+02  0.10848621918E+03  0.11525204461E+03  0.00000000000E+00 0.  1.
</event>
<event>
 5   0  0.2392100E+01  0.8111760E+02  0.7957747E-01  0.1324588E+00
       -2   -1    0    0    0  501  0.00000000000E+00  0.00000000000E+00  0.90930762238E+01  0.90930762238E+01  0.00000000000E+00 0.  1.
        1   -1    0    0  501    0  0.00000000000E+00  0.00000000000E+00 -0.18090867835E+03  0.18090867835E+03  0.00000000000E+00 0. -1.
      -24    2    1    2    0    0  0.00000000000E+00  0.00000000000E+00 -0.17181560213E+03  0.19000175458E+03  0.81117603560E+02 0.  0.
       11    1    3    3    0    0  0.38286178319E+02 -0.30910496791E+01 -0.11641443536E+03  0.12258754749E+03  0.00000000000E+00 0. -1.
      -12    1    3    3    0    0 -0.38286178319E+02  0.30910496791E+01 -0.55401166770E+02  0.67414207092E+02  0.00000000000E+00 0.  1.
</event>
<event>
 5   0  0.2392100E+01  0.6614885E+02  0.7957747E-01  0.1369749E+00
        3   -1    0    0  501    0  0.00000000000E+00  0.00000000000E+00  0.14796632377E+02  0.14796632377E+02  0.00000000000E+00 0. -1.
       -4   -1    0    0    0  501  0.00000000000E+00  0.00000000000E+00 -0.73930172599E+02  0.73930172599E+02  0.00000000000E+00 0.  1.
      -24    2    1    2    0    0  0.00000000000E+00  0.00000000000E+00 -0.59133540222E+02  0.88726804976E+02  0.66148849892E+02 0.  0.
       11    1    3    3    0    0 -0.14192497744E+02 -0.21577378385E+02 -0.18527610959E+01  0.25892913584E+02  0.00000000000E+00 0. -1.
      -12    1    3    3    0    0  0.14192497744E+02  0.21577378385E+02 -0.57280779127E+02  0.62833891392E+02  0.00000000000E+00 0.  1.
</event>
<event>
 5   0  0.2392100E+01  0.8048119E+02  0.7957747E-01  0.1326276E+00
       -2   -1    0    0    0  501  0.00000000000E+00  0.00000000000E+00  0.75311417917E+02  0.75311417917E+02  0.00000000000E+00 0.  1.
        1   -1    0    0  501    0  0.00000000000E+00  0.00000000000E+00 -0.21501458926E+02  0.21501458926E+02  0.00000000000E+00 0. -1.
      -24    2    1    2    0    0  0.00000000000E+00  0.00000000000E+00  0.53809958991E+02  0.96812876843E+02  0.80481186845E+02 0.  0.
       11    1    3    3    0    0  0.12177797927E+02 -0.38274665682E+02  0.29865389715E+02  0.50051876071E+02  0.00000000000E+00 0. -1.
      -12    1    3    3    0    0 -0.12177797927E+02  0.38274665682E+02  0.23944569276E+02  0.46761000772E+02  0.00000000000E+00 0.  1.
</event>
<event>
 5   0  0.2392100E+01  0.8151144E+02  0.7957747E-01  0.1323552E+00
       -4   -1    0    0    0  501  0.00000000000E+00  0.00000000000E+00  0.15348916025E+03  0.15348916025E+03  0.00000000000E+00 0.  1.
        3   -1    0    0  501    0  0.00000000000E+00  0.00000000000E+00 -0.10821799447E+02  0.10821799447E+02  0.00000000000E+00 0. -1.
      -24    2    1    2    0    0  0.00000000000E+00  0.00000000000E+00  0.14266736081E+03  0.16431095970E+03  0.81511444828E+02 0.  0.
       11    1    3    3    0    0 -0.33943816360E+02  0.11465896485E+02  0.32174186595E+02  0.48154207857E+02  0.00000000000E+00 0. -1.
      -12    1    3    3    0    0  0.33943816360E+02 -0.11465896485E+02  0.11049317421E+03  0.11615675184E+03  0.00000000000E+00 0.  1.
</event>
<event>
 5   0  0.2392100E+01  0.8195215E+02  0.7957747E-01  0.1322400E+00
       -2   -1    0    0    0  501  0.00000000000E+00  0.00000000000E+00  0.10213708153E+02  0.10213708153E+02  0.00000000000E+00 0.  1.
        1   -1    0    0  501    0  0.00000000000E+00  0.00000000000E+00 -0.16439072338E+03  0.16439072338E+03  0.00000000000E+00 0. -1.
      -24    2    1    2    0    0  0.00000000000E+00  0.00000000000E+00 -0.15417701523E+03  0.17460443153E+03  0.81952153642E+02 0.  0.
       11    1    3    3    0    0  0.34831735438E+02  0.16781139467E+02 -0.10600322805E+03  0.11283412956E+03  0.00000000000E+00 0. -1.
      -12    1    3    3    0    0 -0.34831735438E+02 -0.16781139467E+02 -0.48173787174E+02  0.61770301975E+02  0.00000000000E+00 0.  1.
</event>
<event>
 5   0  0.2392100E+01  0.7552472E+02  0.7957747E-01  0.1340061E+00
       -2   -1    0    0    0  501  0.00000000000E+00  0.00000000000E+00  0.32268513795E+02  0.32268513795E+02  0.00000000000E+00 0.  1.
        1   -1    0    0  501    0  0.00000000000E+00  0.00000000000E+00 -0.44191555988E+02  0.44191555988E+02  0.00000000000E+00 0. -1.
      -24    2    1    2    0    0  0.00000000000E+00  0.00000000000E+00 -0.11923042193E+02  0.76460069783E+02  0.75524720034E+02 0.  0.
       11    1    3    3    0    0 -0.10152601451E+02 -0.23458747132E+02 -0.34101585191E+02  0.42618144561E+02  0.00000000000E+00 0. -1.
      -12    1    3    3    0    0  0.10152601451E+02  0.23458747132E+02  0.22178542999E+02  0.33841925223E+02  0.00000000000E+00 0.  1.
</event>
<event>
 5   0  0.2392100E+01  0.7871604E+02  0.7957747E-01  0.1331053E+00
       -2   -1    0    0    0  501  0.00000000000E+00  0.00000000000E+00  0.37512753722E+03  0.37512753722E+03  0.00000000000E+00 0.  1.
        1   -1    0    0  501    0  0.00000000000E+00  0.00000000000E+00 -0.41294050727E+01  0.41294050727E+01  0.00000000000E+00 0. -1.
      -24    2    1    2    0    0  0.00000000000E+00  0.00000000000E+00  0.37099813215E+03  0.37925694229E+03  0.78716035344E+02 0.  0.
       11    1    3    3    0    0 -0.25052397981E+02 -0.29495166601E+02  0.15093452631E+03  0.15581661892E+03  0.00000000000E+00 0. -1.
      -12    1    3    3    0    0  0.25052397981E+02  0.29495166601E+02  0.22006360583E+03  0.22344032337E+03  0.00000000000E+00 0.  1.
</event>
<event>
 5   0  0.2392100E+01  0.6556808E+02  0.7957747E-01  0.1371771E+00
        1   -1    0    0  501    0  0.00000000000E+00  0.00000000000E+00  0.26189714292E+02  0.26189714292E+02  0.00000000000E+00 0. -1.
       -2   -1    0    0    0  501  0.00000000000E+00  0.00000000000E+00 -0.41038758816E+02  0.41038758816E+02  0.00000000000E+00 0.  1.
      -24    2    1    2    0    0  0.00000000000E+00  0.00000000000E+00 -0.14849044524E+02  0.67228473108E+02  0.65568082732E+02 0.  0.
       11    1    3    3    0    0  0.18446217198E+01  0.26373757822E+02  0.12452356389E+02  0.29223944131E+02  0.00000000000E+00 0. -1.
      -12    1    3    3    0    0 -0.18446217198E+01 -0.26373757822E+02 -0.27301400913E+02  0.38004528977E+02  0.00000000000E+00 0.  1.
</event>
<event>
 5   0  0.2392100E+01  0.7530806E+02  0.7957747E-01  0.1340691E+00
        1   -1    0    0  501    0  0.00000000000E+00  0.00000000000E+00  0.55869314175E+02  0.55869314175E+02  0.00000000000E+00 0. -1.
       -2   -1    0    0    0  501  0.00000000000E+00  0.00000000000E+00 -0.25377541646E+02  0.25377541646E+02  0.00000000000E+00 0.  1.
      -24    2    1    2    0    0  0.00000000000E+00  0.00000000000E+00  0.30491772529E+02  0.81246855821E+02  0.75308056600E+02 0.  0.
       11    1    3    3    0    0 -0.33796414584E+02 -0.14874632661E+02  0.23201227522E+02  0.43609050598E+02  0.00000000000E+00 0. -1.
      -12    1    3    3    0    0  0.33796414584E+02  0.14874632661E+02  0.72905450068E+01  0.37637805223E+02  0.00000000000E+00 0.  1.
</event>
<event>
 5   0  0.2392100E+01  0.8044497E+02  0.7957747E-01  0.1326373E+00
       -2   -1    0    0    0  501  0.00000000000E+00  0.00000000000E+00  0.49564611221E+01  0.49564611221E+01  0.00000000000E+00 0.  1.
        1   -1    0    0  501    0  0.00000000000E+00  0.00000000000E+00 -0.32641197549E+03  0.32641197549E+03  0.00000000000E+00 0. -1.
      -24    2    1    2    0    0  0.00000000000E+00  0.00000000000E+00 -0.32145551437E+03  0.33136843661E+03  0.80444969172E+02 0.  0.
       11    1    3    3    0    0  0.10525113083E+02 -0.38291950631E+02 -0.18703801964E+03  0.19120740644E+03  0.00000000000E+00 0. -1.
      -12    1    3    3    0    0 -0.10525113083E+02  0.38291950631E+02 -0.13441749473E+03  0.14016103017E+03  0.00000000000E+00 0.  1.
</event>
<event>
 5   0  0.2392100E+01  0.8221808E+02  0.7957747E-01  0.1321709E+00
       -4   -1    0    0    0  501  0.00000000000E+00  0.00000000000E+00  0.15157223038E+03  0.15157223038E+03  0.00000000000E+00 0.  1.
        3   -1    0    0  501    0  0.00000000000E+00  0.00000000000E+00 -0.11149489390E+02  0.11149489390E+02  0.00000000000E+00 0. -1.
      -24    2    1    2    0    0  0.00000000000E+00  0.00000000000E+00  0.14042274099E+03  0.16272171977E+03  0.82218075250E+02 0.  0.
       11    1    3    3    0    0 -0.37507591206E+01  0.25692802083E+02  0.71338260376E+01  0.26927304856E+02  0.00000000000E+00 0. -1.
      -12    1    3    3    0    0  0.37507591206E+01 -0.25692802083E+02  0.13328891495E+03  0.13579441491E+03  0.00000000000E+00 0.  1.
</event>
<event>
 5   0  0.2392100E+01  0.8182896E+02  0.7957747E-01  0.1322721E+00
       -2   -1    0    0    0  501  0.00000000000E+00  0.00000000000E+00  0.11696818683E+02  0.11696818683E+02  0.00000000000E+00 0.  1.
        1   -1    0    0  501    0  0.00000000000E+00  0.00000000000E+00 -0.14311539351E+03  0.14311539351E+03  0.00000000000E+00 0. -1.
      -24    2    1    2    0    0  0.00000000000E+00  0.00000000000E+00 -0.13141857483E+03  0.15481221219E+03  0.81828963298E+02 0.  0.
       11    1    3    3    0    0 -0.94084970936E+01  0.20444987614E+02 -0.13035242417E+03  0.13228103350E+03  0.00000000000E+00 0. -1.
      -12    1    3    3    0    0  0.94084970936E+01 -0.20444987614E+02 -0.10661506553E+01  0.22531178694E+02  0.00000000000E+00 0.  1.
</event>
<event>
 5   0  0.2392100E+01  0.8277982E+02  0.7957747E-01  0.1320260E+00
        1   -1    0    0  501    0  0.00000000000E+00  0.00000000000E+00  0.21123324800E+02  0.21123324800E+02  0.00000000000E+00 0. -1.
       -2   -1    0    0    0  501  0.00000000000E+00  0.00000000000E+00 -0.81101089628E+02  0.81101089628E+02  0.00000000000E+00 0.  1.
      -24    2    1    2    0    0  0.00000000000E+00  0.00000000000E+00 -0.59977764828E+02  0.10222441443E+03  0.82779820193E+02 0.  0.
       11    1    3    3    0    0 -0.21410907474E+02  0.29870019104E+02 -0.53499929553E+02  0.64906759758E+02  0.00000000000E+00 0. -1.
      -12    1    3    3    0    0  0.21410907474E+02 -0.29870019104E+02 -0.64778352751E+01  0.37317654669E+02  0.00000000000E+00 0.  1.
</event>
<event>
 5   0  0.2392100E+01  0.8060021E+02  0.7957747E-01  0.1325959E+00
       -2   -1    0    0    0  501  0.00000000000E+00  0.00000000000E+00  0.77461389180E+02  0.77461389180E+02  0.00000000000E+00 0.  1.
        1   -1    0    0  501    0  0.00000000000E+00  0.00000000000E+00 -0.20966557250E+02  0.20966557250E+02  0.00000000000E+00 0. -1.
      -24    2    1    2    0    0  0.00000000000E+00  0.00000000000E+00  0.56494831930E+02  0.98427946430E+02  0.80600214662E+02 0.  0.
       11    1    3    3    0    0 -0.16687404108E+02  0.31471317065E+02  0.52324796818E+01  0.36004056678E+02  0.00000000000E+00 0. -1.
      -12    1    3    3    0    0  0.16687404108E+02 -0.31471317065E+02  0.51262352248E+02  0.62423889751E+02  0.00000000000E+00 0.  1.
</event>
<event>
 5   0  0.2392100E+01  0.5232818E+02  0.7957747E-01  0.1425592E+00
       -2   -1    0    0    0  501  0.00000000000E+00  0.00000000000E+00  0.42420706721E+02  0.42420706721E+02  0.00000000000E+00 0.  1.
        1   -1    0    0  501    0  0.00000000000E+00  0.00000000000E+00 -0.16137393929E+02  0.16137393929E+02  0.00000000000E+00 0. -1.
      -24    2    1    2    0    0  0.00000000000E+00  0.00000000000E+00  0.26283312792E+02  0.58558100650E+02  0.52328181895E+02 0.  0.
       11    1    3    3    0    0  0.65803498098E-01 -0.22285456632E+02  0.28481841959E+02  0.36164364073E+02  0.00000000000E+00 0. -1.
      -12    1    3    3    0    0 -0.65803498098E-01  0.22285456632E+02 -0.21985291676E+01  0.22393736577E+02  0.00000000000E+00 0.  1.
</event>
<event>
 5   0  0.2392100E+01  0.7751293E+02  0.7957747E-01  0.1334391E+00
       -4   -1    0    0    0  501  0.00000000000E+00  0.00000000000E+00  0.17289670638E+02  0.17289670638E+02  0.00000000000E+00 0.  1.
        3   -1    0    0  501    0  0.00000000000E+00  0.00000000000E+00 -0.86876357044E+02  0.86876357044E+02  0.00000000000E+00 0. -1.
      -24    2    1    2    0    0  0.00000000000E+00  0.00000000000E+00 -0.69586686406E+02  0.10416602768E+03  0.77512930522E+02 0.  0.
       11    1    3    3    0    0  0.14549426609E+02  0.24752431574E+02 -0.69777310647E+02  0.75453573571E+02  0.00000000000E+00 0. -1.
      -12    1    3    3    0    0 -0.14549426609E+02 -0.24752431574E+02  0.19062424141E+00  0.28712454111E+02  0.00000000000E+00 0.  1.
</event>
<event>
 5   0  0.2392100E+01  0.7837907E+02  0.7957747E-01  0.1331981E+00
       -2   -1    0    0    0  501  0.00000000000E+00  0.00000000000E+00  0.63046906299E+03  0.63046906299E+03  0.00000000000E+00 0.  1.
        1   -1    0    0  501    0  0.00000000000E+00  0.00000000000E+00 -0.24359951130E+01  0.24359951130E+01  0.00000000000E+00 0. -1.
      -24    2    1    2    0    0  0.00000000000E+00  0.00000000000E+00  0.62803306788E+03  0.63290505810E+03  0.78379067520E+02 0.  0.
       11    1    3    3    0    0  0.11544881006E+02 -0.97659446975E+01  0.22070139994E+02  0.26753486364E+02  0.00000000000E+00 0. -1.
      -12    1    3    3    0    0 -0.11544881006E+02  0.97659446975E+01  0.60596292788E+03  0.60615157174E+03  0.00000000000E+00 0.  1.
</event>
<event>
 5   0  0.2392100E+01  0.8427367E+02  0.7957747E-01  0.1316467E+00
        1   -1    0    0  501    0  0.00000000000E+00  0.00000000000E+00  0.31249517290E+02  0.31249517290E+02  0.00000000000E+00 0. -1.
       -2   -1    0    0    0  501  0.00000000000E+00  0.00000000000E+00 -0.56817295952E+02  0.56817295952E+02  0.00000000000E+00 0.  1.
      -24    2    1    2    0    0  0.00000000000E+00  0.00000000000E+00 -0.25567778663E+02  0.88066813242E+02  0.84273674946E+02 0.  0.
       11    1    3    3    0    0  0.11448517528E+02 -0.35330613681E+02  0.80165898375E+01  0.37994559206E+02  0.00000000000E+00 0. -1.
      -12    1    3    3    0    0 -0.11448517528E+02  0.35330613681E+02 -0.33584368500E+02  0.50072254036E+02  0.00000000000E+00 0.  1.
</event>
<event>
 5   0  0.2392100E+01  0.8122982E+02  0.7957747E-01  0.1324292E+00
       -2   -1    0    0    0  501  0.00000000000E+00  0.00000000000E+00  0.66064448402E+02  0.66064448402E+02  0.00000000000E+00 0.  1.
        1   -1    0    0  501    0  0.00000000000E+00  0.00000000000E+00 -0.24969113669E+02  0.24969113669E+02  0.00000000000E+00 0. -1.
      -24    2    1    2    0    0  0.00000000000E+00  0.00000000000E+00  0.41095334733E+02  0.91033562071E+02  0.81229815256E+02 0.  0.
       11    1    3    3    0    0  0.84588148329E+01 -0.18733606810E+02 -0.18709679358E+02  0.27794813800E+02  0.00000000000E+00 0. -1.
      -12    1    3    3    0    0 -0.84588148329E+01  0.18733606810E+02  0.59805014091E+02  0.63238748271E+02  0.00000000000E+00 0.  1.
</event>
<event>
 5   0  0.2392100E+01  0.8054997E+02  0.7957747E-01  0.1326093E+00
       -2   -1    0    0    0  501  0.00000000000E+00  0.00000000000E+00  0.14696399815E+03  0.14696399815E+03  0.00000000000E+00 0.  1.
        1   -1    0    0  501    0  0.00000000000E+00  0.00000000000E+00 -0.11037223257E+02  0.11037223257E+02  0.00000000000E+00 0. -1.
      -24    2    1    2    0    0  0.00000000000E+00  0.00000000000E+00  0.13592677490E+03  0.15800122141E+03  0.80549971035E+02 0.  0.
       11    1    3    3    0    0 -0.17996925320E+02  0.27780923625E+02  0.22958960950E+02  0.40283779941E+02  0.00000000000E+00 0. -1.
      -12    1    3    3    0    0  0.17996925320E+02 -0.27780923625E+02  0.11296781395E+03  0.11771744147E+03  0.00000000000E+00 0.  1.
</event>
<event>
 5   0  0.2392100E+01  0.7906244E+02  0.7957747E-01  0.1330105E+00
       -4   -1    0    0    0  501  0.00000000000E+00  0.00000000000E+00  0.19124509352E+02  0.19124509352E+02  0.00000000000E+00 0.  1.
        3   -1    0    0  501    0  0.00000000000E+00  0.00000000000E+00 -0.81712797834E+02  0.81712797834E+02  0.00000000000E+00 0. -1.
      -24    2    1    2    0    0  0.00000000000E+00  0.00000000000E+00 -0.62588288482E+02  0.10083730719E+03  0.79062435236E+02 0.  0.
       11    1    3    3    0    0 -0.69106699932E+01  0.24468596488E+02 -0.69900381529E+02  0.74380998324E+02  0.00000000000E+00 0. -1.
      -12    1    3    3    0    0  0.69106699932E+01 -0.24468596488E+02  0.73120930464E+01  0.26456308862E+02  0.00000000000E+00 0.  1.
</event>
<event>
 5   0  0.2392100E+01  0.7859849E+02  0.7957747E-01  0.1331377E+00
       -2   -1    0    0    0  501  0.00000000000E+00  0.00000000000E+00  0.25886707607E+02  0.25886707607E+02  0.00000000000E+00 0.  1.
        1   -1    0    0  501    0  0.00000000000E+00  0.00000000000E+00 -0.59661153728E+02  0.59661153728E+02  0.00000000000E+00 0. -1.
      -24    2    1    2    0    0  0.00000000000E+00  0.00000000000E+00 -0.33774446121E+02  0.85547861335E+02  0.78598494694E+02 0.  0.
       11    1    3    3    0    0 -0.34252031229E+02  0.11669544335E+01 -0.37819571957E+02  0.51038058829E+02  0.00000000000E+00 0. -1.
      -12    1    3    3    0    0  0.34252031229E+02 -0.11669544335E+01  0.40451258359E+01  0.34509802506E+02  0.00000000000E+00 0.  1.
</event>
<event>
 5   0  0.2392100E+01  0.7943977E+02  0.7957747E-01  0.1329078E+00
        1   -1    0    0  501    0  0.00000000000E+00  0.00000000000E+00  0.10119295176E+03  0.10119295176E+03  0.00000000000E+00 0. -1.
       -2   -1    0    0    0  501  0.00000000000E+00  0.00000000000E+00 -0.15590704366E+02  0.15590704366E+02  0.00000000000E+00 0.  1.
      -24    2    1    2    0    0  0.00000000000E+00  0.00000000000E+00  0.85602247397E+02  0.11678365613E+03  0.79439773284E+02 0.  0.
       11    1    3    3    0    0 -0.81861646216E+01 -0.38847685754E+02  0.40992604552E+02  0.57066186202E+02  0.00000000000E+00 0. -1.
      -12    1    3    3    0    0  0.81861646216E+01  0.38847685754E+02  0.44609642845E+02  0.59717469927E+02  0.00000000000E+00 0.  1.
</event>
<event>
 5   0  0.2392100E+01  0.8427168E+02  0.7957747E-01  0.1316472E+00
        1   -1    0    0  501    0  0.00000000000E+00  0.00000000000E+00  0.10514807497E+03  0.10514807497E+03  0.00000000000E+00 0. -1.
       -2   -1    0    0    0  501  0.00000000000E+00  0.00000000000E+00 -0.16885033914E+02  0.16885033914E+02  0.00000000000E+00 0.  1.
      -24    2    1    2    0    0  0.00000000000E+00  0.00000000000E+00  0.88263041052E+02  0.12203310888E+03  0.84271675237E+02 0.  0.
       11    1    3    3    0    0 -0.28336864963E+02  0.21220615543E+02  0.77220854184E+02  0.84949118658E+02  0.00000000000E+00 0. -1.
      -12    1    3    3    0    0  0.28336864963E+02 -0.21220615543E+02  0.11042186868E+02  0.37083990222E+02  0.00000000000E+00 0.  1.
</event>
<event>
 5   0  0.2392100E+01  0.7592222E+02  0.7957747E-01  0.1338912E+00
       -2   -1    0    0    0  501  0.00000000000E+00  0.00000000000E+00  0.91765463937E+02  0.91765463937E+02  0.00000000000E+00 0.  1.
        1   -1    0    0  501    0  0.00000000000E+00  0.00000000000E+00 -0.15703573435E+02  0.15703573435E+02  0.00000000000E+00 0. -1.
      -24    2    1    2    0    0  0.00000000000E+00  0.00000000000E+00  0.76061890502E+02  0.10746903737E+03  0.75922215504E+02 0.  0.
       11    1    3    3    0    0 -0.16662309963E+02 -0.17540970558E+02 -0.33768612702E+01  0.24427881886E+02  0.00000000000E+00 0. -1.
      -12    1    3    3    0    0  0.16662309963E+02  0.17540970558E+02  0.79438751772E+02  0.83041155486E+02  0.00000000000E+00 0.  1.
</event>
<event>
 5   0  0.2392100E+01  0.8068354E+02  0.7957747E-01  0.1325738E+00
       -2   -1    0    0    0  501  0.00000000000E+00  0.00000000000E+00  0.66581039902E+02  0.66581039902E+02  0.00000000000E+00 0.  1.
        1   -1    0    0  501    0  0.00000000000E+00  0.00000000000E+00 -0.24443269740E+02  0.24443269740E+02  0.00000000000E+00 0. -1.
      -24    2    1    2    0    0  0.00000000000E+00  0.00000000000E+00  0.42137770162E+02  0.91024309642E+02  0.80683537798E+02 0.  0.
       11    1    3    3    0    0  0.48810372311E+01  0.11413219414E+02 -0.22235183206E+02  0.25465456486E+02  0.00000000000E+00 0. -1.
      -12    1    3    3    0    0 -0.48810372311E+01 -0.11413219414E+02  0.64372953368E+02  0.65558853156E+02  0.00000000000E+00 0.  1.
</event>
<event>
 5   0  0.2392100E+01  0.8092482E+02  0.7957747E-01  0.1325098E+00
        1   -1    0    0  501    0  0.00000000000E+00  0.00000000000E+00  0.30828401156E+03  0.30828401156E+03  0.00000000000E+00 0. -1.
       -2   -1    0    0    0  501  0.00000000000E+00  0.00000000000E+00 -0.53107085423E+01  0.53107085423E+01  0.00000000000E+00 0.  1.
      -24    2    1    2    0    0  0.00000000000E+00  0.00000000000E+00  0.30297330301E+03  0.31359472010E+03  0.80924817791E+02 0.  0.
       11    1    3    3    0    0 -0.32411021901E+01  0.40329640331E+02  0.14966121527E+03  0.15503375113E+03  0.00000000000E+00 0. -1.
      -12    1    3    3    0    0  0.32411021901E+01 -0.40329640331E+02  0.15331208774E+03  0.15856096897E+03  0.00000000000E+00 0.  1.
</event>
<event>
 5   0  0.2392100E+01  0.8049637E+02  0.7957747E-01  0.1326236E+00
        3   -1    0    0  501    0  0.00000000000E+00  0.00000000000E+00  0.71323671583E+02  0.71323671583E+02  0.00000000000E+00 0. -1.
       -4   -1    0    0    0  501  0.00000000000E+00  0.00000000000E+00 -0.22712186583E+02  0.22712186583E+02  0.00000000000E+00 0.  1.
      -24    2    1    2    0    0  0.00000000000E+00  0.00000000000E+00  0.48611485000E+02  0.94035858166E+02  0.80496373502E+02 0.  0.
       11    1    3    3    0    0  0.20163091586E+02 -0.37493732779E+01  0.64761713414E+02  0.67931491862E+02  0.00000000000E+00 0. -1.
      -12    1    3    3    0    0 -0.20163091586E+02  0.37493732779E+01 -0.16150228414E+02  0.26104366304E+02  0.00000000000E+00 0.  1.
</event>
<event>
 5   0  0.2392100E+01  0.8472934E+02  0.7957747E-01  0.1315327E+00
       -2   -1    0    0    0  501  0.00000000000E+00  0.00000000000E+00  0.54651545066E+01  0.54651545066E+01  0.00000000000E+00 0.  1.
        1   -1    0    0  501    0  0.00000000000E+00  0.00000000000E+00 -0.32840152659E+03  0.32840152659E+03  0.00000000000E+00 0. -1.
      -24    2    1    2    0    0  0.00000000000E+00  0.00000000000E+00 -0.32293637209E+03  0.33386668110E+03  0.84729335723E+02 0.  0.
       11    1    3    3    0    0 -0.81138443256E+01  0.39296300197E+02 -0.10791199970E+03  0.11513050577E+03  0.00000000000E+00 0. -1.
      -12    1    3    3    0    0  0.81138443256E+01 -0.39296300197E+02 -0.21502437239E+03  0.21873617533E+03  0.00000000000E+00 0.  1.
</event>
<event>
 5   0  0.2392100E+01  0.7666655E+02  0.7957747E-01  0.1336781E+00
        1   -1    0    0  501    0  0.00000000000E+00  0.00000000000E+00  0.14808683415E+03  0.14808683415E+03  0.00000000000E+00 0. -1.
       -2   -1    0    0    0  501  0.00000000000E+00  0.00000000000E+00 -0.99228257268E+01  0.99228257268E+01  0.00000000000E+00 0.  1.
      -24    2    1    2    0    0  0.00000000000E+00  0.00000000000E+00  0.13816400843E+03  0.15800965988E+03  0.76666546752E+02 0.  0.
       11    1    3    3    0    0  0.95825578544E+01  0.21512845200E+02  0.13141868080E+03  0.13351216269E+03  0.00000000000E+00 0. -1.
      -12    1    3    3    0    0 -0.95825578544E+01 -0.21512845200E+02  0.67453276249E+01  0.24497497186E+02  0.00000000000E+00 0.  1.
</event>
<event>
 5   0  0.2392100E+01  0.8027596E+02  0.7957747E-01  0.1326825E+00
        1   -1    0    0  501    0  0.00000000000E+00  0.00000000000E+00  0.18755328032E+02  0.18755328032E+02  0.00000000000E+00 0. -1.
       -2   -1    0    0    0  501  0.00000000000E+00  0.00000000000E+00 -0.85898656977E+02  0.85898656977E+02  0.00000000000E+00 0.  1.
      -24    2    1    2    0    0  0.00000000000E+00  0.00000000000E+00 -0.67143328945E+02  0.10465398501E+03  0.80275961263E+02 0.  0.
       11    1    3    3    0    0  0.37844961267E+02 -0.14622019932E+01 -0.16243125937E+02  0.41209443919E+02  0.00000000000E+00 0. -1.
      -12    1    3    3    0    0 -0.37844961267E+02  0.14622019932E+01 -0.50900203008E+02  0.63444541090E+02  0.00000000000E+00 0.  1.
</event>
<event>
 5   0  0.2392100E+01  0.8255844E+02  0.7957747E-01  0.1320829E+00
        1   -1    0    0  501    0  0.00000000000E+00  0.00000000000E+00  0.19240205714E+03  0.19240205714E+03  0.00000000000E+00 0. -1.
       -2   -1    0    0    0  501  0.00000000000E+00  0.00000000000E+00 -0.88563184480E+01  0.88563184480E+01  0.00000000000E+00 0.  1.
      -24    2    1    2    0    0  0.00000000000E+00  0.00000000000E+00  0.18354573869E+03  0.20125837559E+03  0.82558437197E+02 0.  0.
       11    1    3    3    0    0 -0.33875446948E+02 -0.79887739069E+01  0.14587856658E+03  0.14997307293E+03  0.00000000000E+00 0. -1.
      -12    1    3    3    0    0  0.33875446948E+02  0.79887739069E+01  0.37667172107E+02  0.51285302661E+02  0.00000000000E+00 0.  1.
</event>
<event>
 5   0  0.2392100E+01  0.8284648E+02  0.7957747E-01  0.1320088E+00
        1   -1    0    0  501    0  0.00000000000E+00  0.00000000000E+00  0.89886941844E+02  0.89886941844E+02  0.00000000000E+00 0. -1.
       -2   -1    0    0    0  501  0.00000000000E+00  0.00000000000E+00 -0.19089365441E+02  0.19089365441E+02  0.00000000000E+00 0.  1.
      -24    2    1    2    0    0  0.00000000000E+00  0.00000000000E+00  0.70797576403E+02  0.10897630728E+03  0.82846476840E+02 0.  0.
       11    1    3    3    0    0 -0.20951920965E+02 -0.31399456108E+02  0.57836910588E+02  0.69065310123E+02  0.00000000000E+00 0. -1.
      -12    1    3    3    0    0  0.20951920965E+02  0.31399456108E+02  0.12960665815E+02  0.39910997161E+02  0.00000000000E+00 0.  1.
</event>
<event>
 5   0  0.2392100E+01  0.7775747E+02  0.7957747E-01  0.1333707E+00
        1   -1    0    0  501    0  0.00000000000E+00  0.00000000000E+00  0.54202831805E+02  0.54202831805E+02  0.00000000000E+00 0. -1.
       -2   -1    0    0    0  501  0.00000000000E+00  0.00000000000E+00 -0.27887033081E+02  0.27887033081E+02  0.00000000000E+00 0.  1.
      -24    2    1    2    0    0  0.00000000000E+00  0.00000000000E+00  0.26315798725E+02  0.82089864886E+02  0.77757473303E+02 0.  0.
       11    1    3    3    0    0 -0.22745804519E+02  0.23365421046E+02  0.35509236022E+02  0.48210168707E+02  0.00000000000E+00 0. -1.
      -12    1    3    3    0    0  0.22745804519E+02 -0.23365421046E+02 -0.91934372971E+01  0.33879696179E+02  0.00000000000E+00 0.  1.
</event>
<event>
 5   0  0.2392100E+01  0.9354118E+02  0.7957747E-01  0.1294767E+00
       -2   -1    0    0    0  501  0.00000000000E+00  0.00000000000E+00  0.79817931148E+01  0.79817931148E+01  0.00000000000E+00 0.  1.
        1   -1    0    0  501    0  0.00000000000E+00  0.00000000000E+00 -0.27405973287E+03  0.27405973287E+03  0.00000000000E+00 0. -1.
      -24    2    1    2    0    0  0.00000000000E+00  0.00000000000E+00 -0.26607793975E+03  0.28204152598E+03  0.93541179998E+02 0.  0.
       11    1    3    3    0    0  0.33912924649E+02  0.14107689282E+02 -0.22034199695E+03  0.22338242763E+03  0.00000000000E+00 0. -1.
      -12    1    3    3    0    0 -0.33912924649E+02 -0.14107689282E+02 -0.45735942801E+02  0.58659098348E+02  0.00000000000E+00 0.  1.
</event>
<event>
 5   0  0.2392100E+01  0.8159844E+02  0.7957747E-01  0.1323324E+00
       -2   -1    0    0    0  501  0.00000000000E+00  0.00000000000E+00  0.13320720337E+03  0.13320720337E+03  0.00000000000E+00 0.  1.
        1   -1    0    0  501    0  0.00000000000E+00  0.00000000000E+00 -0.12496142845E+02  0.12496142845E+02  0.00000000000E+00 0. -1.
      -24    2    1    2    0    0  0.00000000000E+00  0.00000000000E+00  0.12071106052E+03  0.14570334621E+03  0.81598437270E+02 0.  0.
       11    1    3    3    0    0 -0.12753120266E+02 -0.35424146840E+02  0.32288762198E+02  0.49599157454E+02  0.00000000000E+00 0. -1.
      -12    1    3    3    0    0  0.12753120266E+02  0.35424146840E+02  0.88422298323E+02  0.96104188757E+02  0.00000000000E+00 0.  1.
</event>
<event>
 5   0  0.2392100E+01  0.7914430E+02  0.7957747E-01  0.1329881E+00
       -2   -1    0    0    0  501  0.00000000000E+00  0.00000000000E+00  0.33976064035E+02  0.33976064035E+02  0.00000000000E+00 0.  1.
        1   -1    0    0  501    0  0.00000000000E+00  0.00000000000E+00 -0.46089951323E+02  0.46089951323E+02  0.00000000000E+00 0. -1.
      -24    2    1    2    0    0  0.00000000000E+00  0.00000000000E+00 -0.12113887288E+02  0.80066015358E+02  0.79144302069E+02 0.  0.
       11    1    3    3    0    0 -0.18330157145E+02  0.90945390552E+01 -0.40322482353E+02  0.45217340531E+02  0.00000000000E+00 0. -1.
      -12    1    3    3    0    0  0.18330157145E+02 -0.90945390552E+01  0.28208595065E+02  0.34848674826E+02  0.00000000000E+00 0.  1.
</event>
<event>
 5   0  0.2392100E+01  0.7993948E+02  0.7957747E-01  0.1327728E+00
        3   -1    0    0  501    0  0.00000000000E+00  0.00000000000E+00  0.63996346900E+02  0.63996346900E+02  0.00000000000E+00 0. -1.
       -4   -1    0    0    0  501  0.00000000000E+00  0.00000000000E+00 -0.24963611639E+02  0.24963611639E+02  0.00000000000E+00 0.  1.
      -24    2    1    2    0    0  0.00000000000E+00  0.00000000000E+00  0.39032735261E+02  0.88959958539E+02  0.79939475863E+02 0.  0.
       11    1    3    3    0    0 -0.24560916686E+02  0.26980723817E+02  0.37679284798E+02  0.52449276344E+02  0.00000000000E+00 0. -1.
      -12    1    3    3    0    0  0.24560916686E+02 -0.26980723817E+02  0.13534504630E+01  0.36510682194E+02  0.00000000000E+00 0.  1.
</event>
<event>
 5   0  0.2392100E+01  0.8641133E+02  0.7957747E-01  0.1311191E+00
       -2   -1    0    0    0  501  0.00000000000E+00  0.00000000000E+00  0.69396150321E+01  0.69396150321E+01  0.00000000000E+00 0.  1.
        1   -1    0    0  501    0  0.00000000000E+00  0.00000000000E+00 -0.26899609295E+03  0.26899609295E+03  0.00000000000E+00 0. -1.
      -24    2    1    2    0    0  0.00000000000E+00  0.00000000000E+00 -0.26205647792E+03  0.27593570799E+03  0.86411326347E+02 0.  0.
       11    1    3    3    0    0 -0.24301514545E+02  0.28734551023E+02 -0.19880494168E+03  0.20233547111E+03  0.00000000000E+00 0. -1.
      -12    1    3    3    0    0  0.24301514545E+02 -0.28734551023E+02 -0.63251536240E+02  0.73600236878E+02  0.00000000000E+00 0.  1.
</event>
<event>
 5   0  0.2392100E+01  0.8070150E+02  0.7957747E-01  0.1325690E+00
       -2   -1    0    0    0  501  0.00000000000E+00  0.00000000000E+00  0.42509478709E+02  0.42509478709E+02  0.00000000000E+00 0.  1.
        1   -1    0    0  501    0  0.00000000000E+00  0.00000000000E+00 -0.38301645059E+02  0.38301645059E+02  0.00000000000E+00 0. -1.
      -24    2    1    2    0    0  0.00000000000E+00  0.00000000000E+00  0.42078336500E+01  0.80811123769E+02  0.80701498504E+02 0.  0.
       11    1    3    3    0    0  0.37339466174E+01  0.39496271726E+02 -0.52739358458E+01  0.40021397239E+02  0.00000000000E+00 0. -1.
      -12    1    3    3    0    0 -0.37339466174E+01 -0.39496271726E+02  0.94817694957E+01  0.40789726530E+02  0.00000000000E+00 0.  1.
</event>
<event>
 5   0  0.2392100E+01  0.8462025E+02  0.7957747E-01  0.1315599E+00
        1   -1    0    0  501    0  0.00000000000E+00  0.00000000000E+00  0.79802701034E+02  0.79802701034E+02  0.00000000000E+00 0. -1.
       -2   -1    0    0    0  501  0.00000000000E+00  0.00000000000E+00 -0.22432156728E+02  0.22432156728E+02  0.00000000000E+00 0.  1.
      -24    2    1    2    0    0  0.00000000000E+00  0.00000000000E+00  0.57370544307E+02  0.10223485776E+03  0.84620250458E+02 0.  0.
       11    1    3    3    0    0  0.84297921998E+01 -0.12683046350E+02  0.76376649277E+02  0.77880123369E+02  0.00000000000E+00 0. -1.
      -12    1    3    3    0    0 -0.84297921998E+01  0.12683046350E+02 -0.19006104970E+02  0.24354734393E+02  0.00000000000E+00 0.  1.
</event>
<event>
 5   0  0.2392100E+01  0.8211784E+02  0.7957747E-01  0.1321970E+00
       -2   -1    0    0    0  501  0.00000000000E+00  0.00000000000E+00  0.67128241580E+01  0.67128241580E+01  0.00000000000E+00 0.  1.
        1   -1    0    0  501    0  0.00000000000E+00  0.00000000000E+00 -0.25113647325E+03  0.25113647325E+03  0.00000000000E+00 0. -1.
      -24    2    1    2    0    0  0.00000000000E+00  0.00000000000E+00 -0.24442364909E+03  0.25784929741E+03  0.82117841778E+02 0.  0.
       11    1    3    3    0    0 -0.30149144172E+02  0.15344211127E+02 -0.19527445134E+03  0.19818306451E+03  0.00000000000E+00 0. -1.
      -12    1    3    3    0    0  0.30149144172E+02 -0.15344211127E+02 -0.49149197751E+02  0.59666232904E+02  0.00000000000E+00 0.  1.
</event>
<event>
 5   0  0.2392100E+01  0.7950880E+02  0.7957747E-01  0.1328891E+00
        1   -1    0    0  501    0  0.00000000000E+00  0.00000000000E+00  0.35013543391E+02  0.35013543391E+02  0.00000000000E+00 0. -1.
       -2   -1    0    0    0  501  0.00000000000E+00  0.00000000000E+00 -0.45137172179E+02  0.45137172179E+02  0.00000000000E+00 0.  1.
      -24    2    1    2    0    0  0.00000000000E+00  0.00000000000E+00 -0.10123628788E+02  0.80150715570E+02  0.79508800435E+02 0.  0.
       11    1    3    3    0    0 -0.23232345791E+01 -0.20799876986E+02  0.29010176033E+02  0.35771813135E+02  0.00000000000E+00 0. -1.
      -12    1    3    3    0    0  0.23232345791E+01  0.20799876986E+02 -0.39133804821E+02  0.44378902435E+02  0.00000000000E+00 0.  1.
</event>
<event>
 5   0  0.2392100E+01  0.8055412E+02  0.7957747E-01  0.1326082E+00
       -4   -1    0    0    0  501  0.00000000000E+00  0.00000000000E+00  0.87763888121E+01  0.87763888121E+01  0.00000000000E+00 0.  1.
        3   -1    0    0  501    0  0.00000000000E+00  0.00000000000E+00 -0.18484158764E+03  0.18484158764E+03  0.00000000000E+00 0. -1.
      -24    2    1    2    0    0  0.00000000000E+00  0.00000000000E+00 -0.17606519883E+03  0.19361797645E+03  0.80554121974E+02 0.  0.
       11    1    3    3    0    0  0.19911101374E+02  0.32859028615E+02 -0.58982725343E+02  0.70392681497E+02  0.00000000000E+00 0. -1.
      -12    1    3    3    0    0 -0.19911101374E+02 -0.32859028615E+02 -0.11708247348E+03  0.12322529495E+03  0.00000000000E+00 0.  1.
</event>
<event>
 5   0  0.2392100E+01  0.7909483E+02  0.7957747E-01  0.1330016E+00
        3   -1    0    0  501    0  0.00000000000E+00  0.00000000000E+00  0.65228969222E+02  0.65228969222E+02  0.00000000000E+00 0. -1.
       -4   -1    0    0    0  501  0.00000000000E+00  0.00000000000E+00 -0.23977045000E+02  0.23977045000E+02  0.00000000000E+00 0.  1.
      -24    2    1    2    0    0  0.00000000000E+00  0.00000000000E+00  0.41251924222E+02  0.89206014222E+02  0.79094827399E+02 0.  0.
       11    1    3    3    0    0 -0.51383685423E+01 -0.36209377243E+02  0.37598908530E+02  0.52451880369E+02  0.00000000000E+00 0. -1.
      -12    1    3    3    0    0  0.51383685423E+01  0.36209377243E+02  0.36530156920E+01  0.36754133853E+02  0.00000000000E+00 0.  1.
</event>
<event>
 5   0  0.2392100E+01  0.7863547E+02  0.7957747E-01  0.1331275E+00
        1   -1    0    0  501    0  0.00000000000E+00  0.00000000000E+00  0.67311098968E+02  0.67311098968E+02  0.00000000000E+00 0. -1.
       -2   -1    0    0    0  501  0.00000000000E+00  0.00000000000E+00 -0.22966260818E+02  0.22966260818E+02  0.00000000000E+00 0.  1.
      -24    2    1    2    0    0  0.00000000000E+00  0.00000000000E+00  0.44344838151E+02  0.90277359786E+02  0.78635469219E+02 0.  0.
       11    1    3    3    0    0  0.10911431435E+01  0.30241784423E+02  0.50991146733E+02  0.59294630141E+02  0.00000000000E+00 0. -1.
      -12    1    3    3    0    0 -0.10911431435E+01 -0.30241784423E+02 -0.66463085821E+01  0.30982729645E+02  0.00000000000E+00 0.  1.
</event>
<event>
 5   0  0.2392100E+01  0.7688287E+02  0.7957747E-01  0.1336167E+00
       -4   -1    0    0    0  501  0.00000000000E+00  0.00000000000E+00  0.76132013070E+01  0.76132013070E+01  0.00000000000E+00 0.  1.
        3   -1    0    0  501    0  0.00000000000E+00  0.00000000000E+00 -0.19410284921E+03  0.19410284921E+03  0.00000000000E+00 0. -1.
      -24    2    1    2    0    0  0.00000000000E+00  0.00000000000E+00 -0.18648964790E+03  0.20171605051E+03  0.76882873653E+02 0.  0.
       11    1    3    3    0    0  0.28699537448E+02  0.39013028588E+01 -0.15956014107E+03  0.16216757454E+03  0.00000000000E+00 0. -1.
      -12    1    3    3    0    0 -0.28699537448E+02 -0.39013028588E+01 -0.26929506828E+02  0.39548475973E+02  0.00000000000E+00 0.  1.
</event>
<event>
 5   0  0.2392100E+01  0.7961271E+02  0.7957747E-01  0.1328609E+00
       -2   -1    0    0    0  501  0.00000000000E+00  0.00000000000E+00  0.53998025475E+01  0.53998025475E+01  0.00000000000E+00 0.  1.
        1   -1    0    0  501    0  0.00000000000E+00  0.00000000000E+00 -0.29344516512E+03  0.29344516512E+03  0.00000000000E+00 0. -1.
      -24    2    1    2    0    0  0.00000000000E+00  0.00000000000E+00 -0.28804536257E+03  0.29884496767E+03  0.79612711301E+02 0.  0.
       11    1    3    3    0    0  0.23444938308E+01  0.35024094479E+02 -0.73560167917E+02  0.81506331958E+02  0.00000000000E+00 0. -1.
      -12    1    3    3    0    0 -0.23444938308E+01 -0.35024094479E+02 -0.21448519465E+03  0.21733863571E+03  0.00000000000E+00 0.  1.
</event>
<event>
 5   0  0.2392100E+01  0.7927867E+02  0.7957747E-01  0.1329515E+00
        3   -1    0    0  501    0  0.00000000000E+00  0.00000000000E+00  0.18110005390E+02  0.18110005390E+02  0.00000000000E+00 0. -1.
       -4   -1    0    0    0  501  0.00000000000E+00  0.00000000000E+00 -0.86762912618E+02  0.86762912618E+02  0.00000000000E+00 0.  1.
      -24    2    1    2    0    0  0.00000000000E+00  0.00000000000E+00 -0.68652907228E+02  0.10487291801E+03  0.79278668383E+02 0.  0.
       11    1    3    3    0    0 -0.26681298665E+02  0.18423857348E+02 -0.41626311935E+01  0.32690330627E+02  0.00000000000E+00 0. -1.
      -12    1    3    3    0    0  0.26681298665E+02 -0.18423857348E+02 -0.64490276034E+02  0.72182587381E+02  0.00000000000E+00 0.  1.
</event>
<event>
 5   0  0.2392100E+01  0.8007095E+02  0.7957747E-01  0.1327374E+00
        1   -1    0    0  501    0  0.00000000000E+00  0.00000000000E+00  0.29715256673E+02  0.29715256673E+02  0.00000000000E+00 0. -1.
       -2   -1    0    0    0  501  0.00000000000E+00  0.00000000000E+00 -0.53939944402E+02  0.53939944402E+02  0.00000000000E+00 0.  1.
      -24    2    1    2    0    0  0.00000000000E+00  0.00000000000E+00 -0.24224687729E+02  0.83655201076E+02  0.80070950859E+02 0.  0.
       11    1    3    3    0    0  0.34351493428E+02  0.20253879812E+02 -0.84046045101E+01  0.40753921593E+02  0.00000000000E+00 0. -1.
      -12    1    3    3    0    0 -0.34351493428E+02 -0.20253879812E+02 -0.15820083219E+02  0.42901279483E+02  0.00000000000E+00 0.  1.
</event>
<event>
 5   0  0.2392100E+01  0.8341800E+02  0.7957747E-01  0.1318628E+00
       -2   -1    0    0    0  501  0.00000000000E+00  0.00000000000E+00  0.72946221488E+02  0.72946221488E+02  0.00000000000E+00 0.  1.
        1   -1    0    0  501    0  0.00000000000E+00  0.00000000000E+00 -0.23848263641E+02  0.23848263641E+02  0.00000000000E+00 0. -1.
      -24    2    1    2    0    0  0.00000000000E+00  0.00000000000E+00  0.49097957846E+02  0.96794485129E+02  0.83418000975E+02 0.  0.
       11    1    3    3    0    0  0.18849682740E+02  0.75404760647E+01 -0.17727949131E+02  0.26952727118E+02  0.00000000000E+00 0. -1.
      -12    1    3    3    0    0 -0.18849682740E+02 -0.75404760647E+01  0.66825906977E+02  0.69841758011E+02  0.00000000000E+00 0.  1.
</event>
<event>
 5   0  0.2392100E+01  0.8276336E+02  0.7957747E-01  0.1320302E+00
       -2   -1    0    0    0  501  0.00000000000E+00  0.00000000000E+00  0.27684840792E+02  0.27684840792E+02  0.00000000000E+00 0.  1.
        1   -1    0    0  501    0  0.00000000000E+00  0.00000000000E+00 -0.61854909852E+02  0.61854909852E+02  0.00000000000E+00 0. -1.
      -24    2    1    2    0    0  0.00000000000E+00  0.00000000000E+00 -0.34170069060E+02  0.89539750644E+02  0.82763357386E+02 0.  0.
       11    1    3    3    0    0  0.17804808737E+02  0.42634020933E+00 -0.57496430308E+02  0.60191631298E+02  0.00000000000E+00 0. -1.
      -12    1    3    3    0    0 -0.17804808737E+02 -0.42634020933E+00  0.23326361247E+02  0.29348119347E+02  0.00000000000E+00 0.  1.
</event>
<event>
 5   0  0.2392100E+01  0.5476418E+02  0.7957747E-01  0.1414397E+00
       -2   -1    0    0    0  501  0.00000000000E+00  0.00000000000E+00  0.11294880473E+02  0.11294880473E+02  0.00000000000E+00 0.  1.
        1   -1    0    0  501    0  0.00000000000E+00  0.00000000000E+00 -0.66382186334E+02  0.66382186334E+02  0.00000000000E+00 0. -1.
      -24    2    1    2    0    0  0.00000000000E+00  0.00000000000E+00 -0.55087305861E+02  0.77677066806E+02  0.54764180270E+02 0.  0.
       11    1    3    3    0    0  0.12168787165E+02  0.12325511633E+02 -0.57624973370E+02  0.60171714069E+02  0.00000000000E+00 0. -1.
      -12    1    3    3    0    0 -0.12168787165E+02 -0.12325511633E+02  0.25376675094E+01  0.17505352738E+02  0.00000000000E+00 0.  1.
</event>
<event>
 5   0  0.2392100E+01  0.8156975E+02  0.7957747E-01  0.1323399E+00
       -2   -1    0    0    0  501  0.00000000000E+00  0.00000000000E+00  0.21154322986E+02  0.21154322986E+02  0.00000000000E+00 0.  1.
        1   -1    0    0  501    0  0.00000000000E+00  0.00000000000E+00 -0.78631964269E+02  0.78631964269E+02  0.00000000000E+00 0. -1.
      -24    2    1    2    0    0  0.00000000000E+00  0.00000000000E+00 -0.57477641282E+02  0.99786287255E+02  0.81569748539E+02 0.  0.
       11    1    3    3    0    0  0.27998378500E+02 -0.29521680345E+02 -0.25285844994E+02  0.47904204054E+02  0.00000000000E+00 0. -1.
      -12    1    3    3    0    0 -0.27998378500E+02  0.29521680345E+02 -0.32191796288E+02  0.51882083201E+02  0.00000000000E+00 0.  1.
</event>
<event>
 5   0  0.2392100E+01  0.8039413E+02  0.7957747E-01  0.1326509E+00
        1   -1    0    0  501    0  0.00000000000E+00  0.00000000000E+00  0.30762314079E+02  0.30762314079E+02  0.00000000000E+00 0. -1.
       -2   -1    0    0    0  501  0.00000000000E+00  0.00000000000E+00 -0.52525435962E+02  0.52525435962E+02  0.00000000000E+00 0.  1.
      -24    2    1    2    0    0  0.00000000000E+00  0.00000000000E+00 -0.21763121883E+02  0.83287750041E+02  0.80394128100E+02 0.  0.
       11    1    3    3    0    0  0.34725615276E+02  0.20064962900E+01  0.99907938498E+01  0.36189920495E+02  0.00000000000E+00 0. -1.
      -12    1    3    3    0    0 -0.34725615276E+02 -0.20064962900E+01 -0.31753915732E+02  0.47097829547E+02  0.00000000000E+00 0.  1.
</event>
<event>
 5   0  0.2392100E+01  0.8174360E+02  0.7957747E-01  0.1322944E+00
        1   -1    0    0  501    0  0.00000000000E+00  0.00000000000E+00  0.75661450846E+01  0.75661450846E+01  0.00000000000E+00 0. -1.
       -2   -1    0    0    0  501  0.00000000000E+00  0.00000000000E+00 -0.22078667263E+03  0.22078667263E+03  0.00000000000E+00 0.  1.
      -24    2    1    2    0    0  0.00000000000E+00  0.00000000000E+00 -0.21322052755E+03  0.22835281772E+03  0.81743599086E+02 0.  0.
       11    1    3    3    0    0 -0.26622055220E+02  0.50487180958E+01 -0.21132010987E+02  0.34362556175E+02  0.00000000000E+00 0. -1.
      -12    1    3    3    0    0  0.26622055220E+02 -0.50487180958E+01 -0.19208851656E+03  0.19399026154E+03  0.00000000000E+00 0.  1.
</event>
<event>
 5   0  0.2392100E+01  0.7858738E+02  0.7957747E-01  0.1331407E+00
       -2   -1    0    0    0  501  0.00000000000E+00  0.00000000000E+00  0.98971440902E+02  0.98971440902E+02  0.00000000000E+00 0.  1.
        1   -1    0    0  501    0  0.00000000000E+00  0.00000000000E+00 -0.15600400901E+02  0.15600400901E+02  0.00000000000E+00 0. -1.
      -24    2    1    2    0    0  0.00000000000E+00  0.00000000000E+00  0.83371040001E+02  0.11457184180E+03  0.78587382086E+02 0.  0.
       11    1    3    3    0    0  0.12296936109E+02 -0.35136021299E+02  0.23346228283E+02  0.43940880800E+02  0.00000000000E+00 0. -1.
      -12    1    3    3    0    0 -0.12296936109E+02  0.35136021299E+02  0.60024811718E+02  0.70630961003E+02  0.00000000000E+00 0.  1.
</event>
<event>
 5   0  0.2392100E+01  0.7834152E+02  0.7957747E-01  0.1332085E+00
        1   -1    0    0  501    0  0.00000000000E+00  0.00000000000E+00  0.44061823108E+02  0.44061823108E+02  0.00000000000E+00 0. -1.
       -2   -1    0    0    0  501  0.00000000000E+00  0.00000000000E+00 -0.34822630415E+02  0.34822630415E+02  0.00000000000E+00 0.  1.
      -24    2    1    2    0    0  0.00000000000E+00  0.00000000000E+00  0.92391926923E+01  0.78884453523E+02  0.78341523639E+02 0.  0.
       11    1    3    3    0    0  0.17149133796E+02  0.86256036878E+01  0.39000843888E+02  0.43469065471E+02  0.00000000000E+00 0. -1.
      -12    1    3    3    0    0 -0.17149133796E+02 -0.86256036878E+01 -0.29761651196E+02  0.35415388052E+02  0.00000000000E+00 0.  1.
</event>
<event>
 5   0  0.2392100E+01  0.7936108E+02  0.7957747E-01  0.1329291E+00
       -2   -1    0    0    0  501  0.00000000000E+00  0.00000000000E+00  0.47376371726E+01  0.47376371726E+01  0.00000000000E+00 0.  1.
        1   -1    0    0  501    0  0.00000000000E+00  0.00000000000E+00 -0.33234822932E+03  0.33234822932E+03  0.00000000000E+00 0. -1.
      -24    2    1    2    0    0  0.00000000000E+00  0.00000000000E+00 -0.32761059215E+03  0.33708586650E+03  0.79361081784E+02 0.  0.
       11    1    3    3    0    0  0.13751539133E+02  0.36320291260E+02 -0.12922615606E+03  0.13493579138E+03  0.00000000000E+00 0. -1.
      -12    1    3    3    0    0 -0.13751539133E+02 -0.36320291260E+02 -0.19838443609E+03  0.20215007512E+03  0.00000000000E+00 0.  1.
</event>
<event>
 5   0  0.2392100E+01  0.7852231E+02  0.7957747E-01  0.1331586E+00
        1   -1    0    0  501    0  0.00000000000E+00  0.00000000000E+00  0.25809979379E+02  0.25809979379E+02  0.00000000000E+00 0. -1.
       -2   -1    0    0    0  501  0.00000000000E+00  0.00000000000E+00 -0.59722576919E+02  0.59722576919E+02  0.00000000000E+00 0.  1.
      -24    2    1    2    0    0  0.00000000000E+00  0.00000000000E+00 -0.33912597540E+02  0.85532556298E+02  0.78522314758E+02 0.  0.
       11    1    3    3    0    0  0.26224407661E+02 -0.17518313108E+01  0.14813452421E+02  0.30169965905E+02  0.00000000000E+00 0. -1.
      -12    1    3    3    0    0 -0.26224407661E+02  0.17518313108E+01 -0.48726049962E+02  0.55362590393E+02  0.00000000000E+00 0.  1.
</event>
<event>
 5   0  0.2392100E+01  0.8074714E+02  0.7957747E-01  0.1325569E+00
       -4   -1    0    0    0  501  0.00000000000E+00  0.00000000000E+00  0.17034393729E+02  0.17034393729E+02  0.00000000000E+00 0.  1.
        3   -1    0    0  501    0  0.00000000000E+00  0.00000000000E+00 -0.95690227021E+02  0.95690227021E+02  0.00000000000E+00 0. -1.
      -24    2    1    2    0    0  0.00000000000E+00  0.00000000000E+00 -0.78655833292E+02  0.11272462075E+03  0.80747136248E+02 0.  0.
       11    1    3    3    0    0 -0.33330816580E+02 -0.21937791963E+02 -0.47912583312E+02  0.62352431305E+02  0.00000000000E+00 0. -1.
      -12    1    3    3    0    0  0.33330816580E+02  0.21937791963E+02 -0.30743249980E+02  0.50372189444E+02  0.00000000000E+00 0.  1.
</event>
<event>
 5   0  0.2392100E+01  0.8094331E+02  0.7957747E-01  0.1325049E+00
        1   -1    0    0  501    0  0.00000000000E+00  0.00000000000E+00  0.10105497090E+03  0.10105497090E+03  0.00000000000E+00 0. -1.
       -2   -1    0    0    0  501  0.00000000000E+00  0.00000000000E+00 -0.16208551878E+02  0.16208551878E+02  0.00000000000E+00 0.  1.
      -24    2    1    2    0    0  0.00000000000E+00  0.00000000000E+00  0.84846419017E+02  0.11726352277E+03  0.80943307031E+02 0.  0.
       11    1    3    3    0    0  0.34117609423E+02  0.20570361808E+02  0.32097269883E+02  0.51160392802E+02  0.00000000000E+00 0. -1.
      -12    1    3    3    0    0 -0.34117609423E+02 -0.20570361808E+02  0.52749149134E+02  0.66103129971E+02  0.00000000000E+00 0.  1.
</event>
<event>
 5   0  0.2392100E+01  0.8219263E+02  0.7957747E-01  0.1321775E+00
        1   -1    0    0  501    0  0.00000000000E+00  0.00000000000E+00  0.16506646015E+03  0.16506646015E+03  0.00000000000E+00 0. -1.
       -2   -1    0    0    0  501  0.00000000000E+00  0.00000000000E+00 -0.10231680322E+02  0.10231680322E+02  0.00000000000E+00 0.  1.
      -24    2    1    2    0    0  0.00000000000E+00  0.00000000000E+00  0.15483477983E+03  0.17529814047E+03  0.82192633543E+02 0.  0.
       11    1    3    3    0    0  0.10920845539E+02 -0.39609218512E+02  0.75567655946E+02  0.86015264248E+02  0.00000000000E+00 0. -1.
      -12    1    3    3    0    0 -0.10920845539E+02  0.39609218512E+02  0.79267123881E+02  0.89282876224E+02  0.00000000000E+00 0.  1.
</event>
<event>
 5   0  0.2392100E+01  0.8218143E+02  0.7957747E-01  0.1321804E+00
       -2   -1    0    0    0  501  0.00000000000E+00  0.00000000000E+00  0.83590008561E+02  0.83590008561E+02  0.00000000000E+00 0.  1.
        1   -1    0    0  501    0  0.00000000000E+00  0.00000000000E+00 -0.20199147508E+02  0.20199147508E+02  0.00000000000E+00 0. -1.
      -24    2    1    2    0    0  0.00000000000E+00  0.00000000000E+00  0.63390861053E+02  0.10378915607E+03  0.82181431311E+02 0.  0.
       11    1    3    3    0    0  0.75984578565E+01  0.11415528597E+02 -0.17223982456E+02  0.22016276402E+02  0.00000000000E+00 0. -1.
      -12    1    3    3    0    0 -0.75984578565E+01 -0.11415528597E+02  0.80614843509E+02  0.81772879666E+02  0.00000000000E+00 0.  1.
</event>
<event>
 5   0  0.2392100E+01  0.7463323E+02  0.7957747E-01  0.1342668E+00
       -2   -1    0    0    0  501  0.00000000000E+00  0.00000000000E+00  0.88524331228E+01  0.88524331228E+01  0.00000000000E+00 0.  1.
        1   -1    0    0  501    0  0.00000000000E+00  0.00000000000E+00 -0.15730475727E+03  0.15730475727E+03  0.00000000000E+00 0. -1.
      -24    2    1    2    0    0  0.00000000000E+00  0.00000000000E+00 -0.14845232415E+03  0.16615719039E+03  0.74633232374E+02 0.  0.
       11    1    3    3    0    0  0.31132546190E+02 -0.75169447611E+01 -0.11686404218E+03  0.12117319937E+03  0.00000000000E+00 0. -1.
      -12    1    3    3    0    0 -0.31132546190E+02  0.75169447611E+01 -0.31588281971E+02  0.44983991027E+02  0.00000000000E+00 0.  1.
</event>
<event>
 5   0  0.2392100E+01  0.7827691E+02  0.7957747E-01  0.1332264E+00
        1   -1    0    0  501    0  0.00000000000E+00  0.00000000000E+00  0.38886210147E+03  0.38886210147E+03  0.00000000000E+00 0. -1.
       -2   -1    0    0    0  501  0.00000000000E+00  0.00000000000E+00 -0.39392335547E+01  0.39392335547E+01  0.00000000000E+00 0.  1.
      -24    2    1    2    0    0  0.00000000000E+00  0.00000000000E+00  0.38492286792E+03  0.39280133503E+03  0.78276909451E+02 0.  0.
       11    1    3    3    0    0  0.29558823137E+02  0.25601961649E+02  0.20060587740E+03  0.20438175680E+03  0.00000000000E+00 0. -1.
      -12    1    3    3    0    0 -0.29558823137E+02 -0.25601961649E+02  0.18431699052E+03  0.18841957823E+03  0.00000000000E+00 0.  1.
</event>
<event>
 5   0  0.2392100E+01  0.8311253E+02  0.7957747E-01  0.1319407E+00
        1   -1    0    0  501    0  0.00000000000E+00  0.00000000000E+00  0.33021290306E+01  0.33021290306E+01  0.00000000000E+00 0. -1.
       -2   -1    0    0    0  501  0.00000000000E+00  0.00000000000E+00 -0.52297264969E+03  0.52297264969E+03  0.00000000000E+00 0.  1.
      -24    2    1    2    0    0  0.00000000000E+00  0.00000000000E+00 -0.51967052066E+03  0.52627477872E+03  0.83112530193E+02 0.  0.
       11    1    3    3    0    0 -0.25579396953E+01  0.31757258139E+02 -0.90891431487E+02  0.96313648138E+02  0.00000000000E+00 0. -1.
      -12    1    3    3    0    0  0.25579396953E+01 -0.31757258139E+02 -0.42877908918E+03  0.42996113058E+03  0.00000000000E+00 0.  1.
</event>
<event>
 5   0  0.2392100E+01  0.5978111E+02  0.7957747E-01  0.1393320E+00
        1   -1    0    0  501    0  0.00000000000E+00  0.00000000000E+00  0.18061504491E+02  0.18061504491E+02  0.00000000000E+00 0. -1.
       -2   -1    0    0    0  501  0.00000000000E+00  0.00000000000E+00 -0.49466819426E+02  0.49466819426E+02  0.00000000000E+00 0.  1.
      -24    2    1    2    0    0  0.00000000000E+00  0.00000000000E+00 -0.31405314936E+02  0.67528323917E+02  0.59781106755E+02 0.  0.
       11    1    3    3    0    0  0.27942146659E+02  0.38648514952E+01 -0.45348406361E+01  0.28570359056E+02  0.00000000000E+00 0. -1.
      -12    1    3    3    0    0 -0.27942146659E+02 -0.38648514952E+01 -0.26870474300E+02  0.38957964861E+02  0.00000000000E+00 0.  1.
</event>
<event>
 5   0  0.2392100E+01  0.7974484E+02  0.7957747E-01  0.1328252E+00
       -2   -1    0    0    0  501  0.00000000000E+00  0.00000000000E+00  0.15803371378E+03  0.15803371378E+03  0.00000000000E+00 0.  1.
        1   -1    0    0  501    0  0.00000000000E+00  0.00000000000E+00 -0.10059940688E+02  0.10059940688E+02  0.00000000000E+00 0. -1.
      -24    2    1    2    0    0  0.00000000000E+00  0.00000000000E+00  0.14797377309E+03  0.16809365447E+03  0.79744837760E+02 0.  0.
       11    1    3    3    0    0  0.11047601037E+02 -0.23753389031E+02  0.10625938754E+02  0.28269834692E+02  0.00000000000E+00 0. -1.
      -12    1    3    3    0    0 -0.11047601037E+02  0.23753389031E+02  0.13734783434E+03  0.13982381978E+03  0.00000000000E+00 0.  1.
</event>
<event>
 5   0  0.2392100E+01  0.7734898E+02  0.7957747E-01  0.1334852E+00
        1   -1    0    0  501    0  0.00000000000E+00  0.00000000000E+00  0.35208221525E+01  0.35208221525E+01  0.00000000000E+00 0. -1.
       -2   -1    0    0    0  501  0.00000000000E+00  0.00000000000E+00 -0.42482016125E+03  0.42482016125E+03  0.00000000000E+00 0.  1.
      -24    2    1    2    0    0  0.00000000000E+00  0.00000000000E+00 -0.42129933910E+03  0.42834098341E+03  0.77348981495E+02 0.  0.
       11    1    3    3    0    0  0.10029480194E+02 -0.37053216727E+02 -0.18456630042E+03  0.18851591602E+03  0.00000000000E+00 0. -1.
      -12    1    3    3    0    0 -0.10029480194E+02  0.37053216727E+02 -0.23673303868E+03  0.23982506739E+03  0.00000000000E+00 0.  1.
</event>
<event>
 5   0  0.2392100E+01  0.7944560E+02  0.7957747E-01  0.1329062E+00
       -2   -1    0    0    0  501  0.00000000000E+00  0.00000000000E+00  0.29909990769E+02  0.29909990769E+02  0.00000000000E+00 0.  1.
        1   -1    0    0  501    0  0.00000000000E+00  0.00000000000E+00 -0.52754981942E+02  0.52754981942E+02  0.00000000000E+00 0. -1.
      -24    2    1    2    0    0  0.00000000000E+00  0.00000000000E+00 -0.22844991174E+02  0.82664972711E+02  0.79445604608E+02 0.  0.
       11    1    3    3    0    0 -0.16328344392E+02 -0.33458275319E+02 -0.25834019984E+02  0.45315202818E+02  0.00000000000E+00 0. -1.
      -12    1    3    3    0    0  0.16328344392E+02  0.33458275319E+02  0.29890288101E+01  0.37349769894E+02  0.00000000000E+00 0.  1.
</event>
<event>
 5   0  0.2392100E+01  0.8117890E+02  0.7957747E-01  0.1324426E+00
       -2   -1    0    0    0  501  0.00000000000E+00  0.00000000000E+00  0.37212209675E+02  0.37212209675E+02  0.00000000000E+00 0.  1.
        1   -1    0    0  501    0  0.00000000000E+00  0.00000000000E+00 -0.44273201111E+02  0.44273201111E+02  0.00000000000E+00 0. -1.
      -24    2    1    2    0    0  0.00000000000E+00  0.00000000000E+00 -0.70609914355E+01  0.81485410786E+02  0.81178904716E+02 0.  0.
       11    1    3    3    0    0 -0.21426699874E+02 -0.16548269723E+02 -0.33886288033E+02  0.43373139326E+02  0.00000000000E+00 0. -1.
      -12    1    3    3    0    0  0.21426699874E+02  0.16548269723E+02  0.26825296598E+02  0.38112271460E+02  0.00000000000E+00 0.  1.
</event>
<event>
 4   0  0.2392100E+01  0.1481374E+03  0.7957747E-01  0.1207093E+00
        1   -1    0    0  501    0  0.00000000000E+00  0.00000000000E+00  0.19562068238E+03  0.19562068238E+03  0.00000000000E+00 0. -1.
       -2   -1    0    0    0  501  0.00000000000E+00  0.00000000000E+00 -0.28044951031E+02  0.28044951031E+02  0.00000000000E+00 0.  1.
       11    1    1    2    0    0  0.46260746232E+02 -0.47805035536E+02  0.13296351958E+03  0.14867641239E+03  0.00000000000E+00 0. -1.
      -12    1    1    2    0    0 -0.46260746232E+02  0.47805035536E+02  0.34612211771E+02  0.74989221014E+02  0.00000000000E+00 0.  1.
</event>
<event>
 5   0  0.2392100E+01  0.8085226E+02  0.7957747E-01  0.1325290E+00
       -2   -1    0    0    0  501  0.00000000000E+00  0.00000000000E+00  0.39977635585E+01  0.39977635585E+01  0.00000000000E+00 0.  1.
        1   -1    0    0  501    0  0.00000000000E+00  0.00000000000E+00 -0.40879652796E+03  0.40879652796E+03  0.00000000000E+00 0. -1.
      -24    2    1    2    0    0  0.00000000000E+00  0.00000000000E+00 -0.40479876440E+03  0.41279429152E+03  0.80852256922E+02 0.  0.
       11    1    3    3    0    0 -0.14717219886E+02  0.37473915602E+02 -0.22107543184E+03  0.22471145381E+03  0.00000000000E+00 0. -1.
      -12    1    3    3    0    0  0.14717219886E+02 -0.37473915602E+02 -0.18372333257E+03  0.18808283771E+03  0.00000000000E+00 0.  1.
</event>
<event>
 5   0  0.2392100E+01  0.7997380E+02  0.7957747E-01  0.1327635E+00
       -4   -1    0    0    0  501  0.00000000000E+00  0.00000000000E+00  0.19886275819E+03  0.19886275819E+03  0.00000000000E+00 0.  1.
        3   -1    0    0  501    0  0.00000000000E+00  0.00000000000E+00 -0.80404807092E+01  0.80404807092E+01  0.00000000000E+00 0. -1.
      -24    2    1    2    0    0  0.00000000000E+00  0.00000000000E+00  0.19082227748E+03  0.20690323890E+03  0.79973799985E+02 0.  0.
       11    1    3    3    0    0 -0.14219103328E+02  0.35233662480E+02  0.63164326643E+02  0.73711098428E+02  0.00000000000E+00 0. -1.
      -12    1    3    3    0    0  0.14219103328E+02 -0.35233662480E+02  0.12765795084E+03  0.13319214047E+03  0.00000000000E+00 0.  1.
</event>
<event>
 5   0  0.2392100E+01  0.8250627E+02  0.7957747E-01  0.1320964E+00
       -4   -1    0    0    0  501  0.00000000000E+00  0.00000000000E+00  0.11116160073E+03  0.11116160073E+03  0.00000000000E+00 0.  1.
        3   -1    0    0  501    0  0.00000000000E+00  0.00000000000E+00 -0.15309434116E+02  0.15309434116E+02  0.00000000000E+00 0. -1.
      -24    2    1    2    0    0  0.00000000000E+00  0.00000000000E+00  0.95852166618E+02  0.12647103485E+03  0.82506271343E+02 0.  0.
       11    1    3    3    0    0 -0.30242748359E+02  0.13596422205E+02  0.10305714831E+02  0.34723108779E+02  0.00000000000E+00 0. -1.
      -12    1    3    3    0    0  0.30242748359E+02 -0.13596422205E+02  0.85546451786E+02  0.91747926071E+02  0.00000000000E+00 0.  1.
</event>
<event>
 5   0  0.2392100E+01  0.5468719E+02  0.7957747E-01  0.1414741E+00
       -2   -1    0    0    0  501  0.00000000000E+00  0.00000000000E+00  0.52320119927E+02  0.52320119927E+02  0.00000000000E+00 0.  1.
        1   -1    0    0  501    0  0.00000000000E+00  0.00000000000E+00 -0.14290338018E+02  0.14290338018E+02  0.00000000000E+00 0. -1.
      -24    2    1    2    0    0  0.00000000000E+00  0.00000000000E+00  0.38029781909E+02  0.66610457945E+02  0.54687190417E+02 0.  0.
       11    1    3    3    0    0 -0.14240536940E+02  0.22126817501E+02  0.28071249456E+02  0.38475758486E+02  0.00000000000E+00 0. -1.
      -12    1    3    3    0    0  0.14240536940E+02 -0.22126817501E+02  0.99585324528E+01  0.28134699459E+02  0.00000000000E+00 0.  1.
</event>
<event>
 5   0  0.2392100E+01  0.8030262E+02  0.7957747E-01  0.1326753E+00
       -2   -1    0    0    0  501  0.00000000000E+00  0.00000000000E+00  0.19649389896E+02  0.19649389896E+02  0.00000000000E+00 0.  1.
        1   -1    0    0  501    0  0.00000000000E+00  0.00000000000E+00 -0.82044661921E+02  0.82044661921E+02  0.00000000000E+00 0. -1.
      -24    2    1    2    0    0  0.00000000000E+00  0.00000000000E+00 -0.62395272025E+02  0.10169405182E+03  0.80302616420E+02 0.  0.
       11    1    3    3    0    0 -0.36333245612E+02 -0.13916619393E+02 -0.43756610654E+02  0.58552694284E+02  0.00000000000E+00 0. -1.
      -12    1    3    3    0    0  0.36333245612E+02  0.13916619393E+02 -0.18638661371E+02  0.43141357533E+02  0.00000000000E+00 0.  1.
</event>
<event>
 5   0  0.2392100E+01  0.8095742E+02  0.7957747E-01  0.1325011E+00
        1   -1    0    0  501    0  0.00000000000E+00  0.00000000000E+00  0.83988860119E+01  0.83988860119E+01  0.00000000000E+00 0. -1.
       -2   -1    0    0    0  501  0.00000000000E+00  0.00000000000E+00 -0.19508848377E+03  0.19508848377E+03  0.00000000000E+00 0.  1.
      -24    2    1    2    0    0  0.00000000000E+00  0.00000000000E+00 -0.18668959776E+03  0.20348736978E+03  0.80957419362E+02 0.  0.
       11    1    3    3    0    0  0.37903378019E+01 -0.26887217149E+02 -0.17887671431E+02  0.32515502393E+02  0.00000000000E+00 0. -1.
      -12    1    3    3    0    0 -0.37903378019E+01  0.26887217149E+02 -0.16880192633E+03  0.17097186739E+03  0.00000000000E+00 0.  1.
</event>
<event>
 5   0  0.2392100E+01  0.7465767E+02  0.7957747E-01  0.1342596E+00
        1   -1    0    0  501    0  0.00000000000E+00  0.00000000000E+00  0.19387198073E+02  0.19387198073E+02  0.00000000000E+00 0. -1.
       -2   -1    0    0    0  501  0.00000000000E+00  0.00000000000E+00 -0.71874342070E+02  0.71874342070E+02  0.00000000000E+00 0.  1.
      -24    2    1    2    0    0  0.00000000000E+00  0.00000000000E+00 -0.52487143997E+02  0.91261540142E+02  0.74657674918E+02 0.  0.
       11    1    3    3    0    0  0.34078976277E+02 -0.98229326436E+01 -0.12010327735E+02  0.37444820765E+02  0.00000000000E+00 0. -1.
      -12    1    3    3    0    0 -0.34078976277E+02  0.98229326436E+01 -0.40476816262E+02  0.53816719377E+02  0.00000000000E+00 0.  1.
</event>
<event>
 5   0  0.2392100E+01  0.7970395E+02  0.7957747E-01  0.1328363E+00
       -2   -1    0    0    0  501  0.00000000000E+00  0.00000000000E+00  0.32837100279E+03  0.32837100279E+03  0.00000000000E+00 0.  1.
        1   -1    0    0  501    0  0.00000000000E+00  0.00000000000E+00 -0.48365412243E+01  0.48365412243E+01  0.00000000000E+00 0. -1.
      -24    2    1    2    0    0  0.00000000000E+00  0.00000000000E+00  0.32353446157E+03  0.33320754402E+03  0.79703949510E+02 0.  0.
       11    1    3    3    0    0  0.27398163174E+02  0.69684549515E+00  0.40816978058E+02  0.49164729601E+02  0.00000000000E+00 0. -1.
      -12    1    3    3    0    0 -0.27398163174E+02 -0.69684549515E+00  0.28271748351E+03  0.28404281442E+03  0.00000000000E+00 0.  1.
</event>
<event>
 5   0  0.2392100E+01  0.9813147E+02  0.7957747E-01  0.1285041E+00
       -4   -1    0    0    0  501  0.00000000000E+00  0.00000000000E+00  0.11128498519E+03  0.11128498519E+03  0.00000000000E+00 0.  1.
        3   -1    0    0  501    0  0.00000000000E+00  0.00000000000E+00 -0.21633165490E+02  0.21633165490E+02  0.00000000000E+00 0. -1.
      -24    2    1    2    0    0  0.00000000000E+00  0.00000000000E+00  0.89651819701E+02  0.13291815068E+03  0.98131473059E+02 0.  0.
       11    1    3    3    0    0  0.24680169011E+02  0.26565277883E+01 -0.12500869445E+02  0.27792797973E+02  0.00000000000E+00 0. -1.
      -12    1    3    3    0    0 -0.24680169011E+02 -0.26565277883E+01  0.10215268915E+03  0.10512535271E+03  0.00000000000E+00 0.  1.
</event>
<event>
 5   0  0.2392100E+01  0.1085918E+03  0.7957747E-01  0.1264952E+00
       -4   -1    0    0    0  501  0.00000000000E+00  0.00000000000E+00  0.55514915554E+02  0.55514915554E+02  0.00000000000E+00 0.  1.
        3   -1    0    0  501    0  0.00000000000E+00  0.00000000000E+00 -0.53103676932E+02  0.53103676932E+02  0.00000000000E+00 0. -1.
      -24    2    1    2    0    0  0.00000000000E+00  0.00000000000E+00  0.24112386223E+01  0.10861859249E+03  0.10859182548E+03 0.  0.
       11    1    3    3    0    0  0.17735261721E+02 -0.22681712171E+02 -0.44838830402E+02  0.53287149362E+02  0.00000000000E+00 0. -1.
      -12    1    3    3    0    0 -0.17735261721E+02  0.22681712171E+02  0.47250069024E+02  0.55331443124E+02  0.00000000000E+00 0.  1.
</event>
<event>
 5   0  0.2392100E+01  0.7787382E+02  0.7957747E-01  0.1333383E+00
        3   -1    0    0  501    0  0.00000000000E+00  0.00000000000E+00  0.57853504343E+02  0.57853504343E+02  0.00000000000E+00 0. -1.
       -4   -1    0    0    0  501  0.00000000000E+00  0.00000000000E+00 -0.26205549426E+02  0.26205549426E+02  0.00000000000E+00 0.  1.
      -24    2    1    2    0    0  0.00000000000E+00  0.00000000000E+00  0.31647954917E+02  0.84059053769E+02  0.77873817616E+02 0.  0.
       11    1    3    3    0    0  0.23520248519E+02 -0.11267267607E+02  0.47032833232E+02  0.53779557562E+02  0.00000000000E+00 0. -1.
      -12    1    3    3    0    0 -0.23520248519E+02  0.11267267607E+02 -0.15384878315E+02  0.30279496207E+02  0.00000000000E+00 0.  1.
</event>
<event>
 5   0  0.2392100E+01  0.7994869E+02  0.7957747E-01  0.1327703E+00
       -2   -1    0    0    0  501  0.00000000000E+00  0.00000000000E+00  0.29522504208E+03  0.29522504208E+03  0.00000000000E+00 0.  1.
        1   -1    0    0  501    0  0.00000000000E+00  0.00000000000E+00 -0.54126450856E+01  0.54126450856E+01  0.00000000000E+00 0. -1.
      -24    2    1    2    0    0  0.00000000000E+00  0.00000000000E+00  0.28981239699E+03  0.30063768716E+03  0.79948692876E+02 0.  0.
       11    1    3    3    0    0 -0.23227606746E+02  0.82745288956E+01  0.26590977073E+02  0.36263888447E+02  0.00000000000E+00 0. -1.
      -12    1    3    3    0    0  0.23227606746E+02 -0.82745288956E+01  0.26322141992E+03  0.26437379871E+03  0.00000000000E+00 0.  1.
</event>
<event>
 5   0  0.2392100E+01  0.8273336E+02  0.7957747E-01  0.1320379E+00
        1   -1    0    0  501    0  0.00000000000E+00  0.00000000000E+00  0.33624444740E+02  0.33624444740E+02  0.00000000000E+00 0. -1.
       -2   -1    0    0    0  501  0.00000000000E+00  0.00000000000E+00 -0.50891612960E+02  0.50891612960E+02  0.00000000000E+00 0.  1.
      -24    2    1    2    0    0  0.00000000000E+00  0.00000000000E+00 -0.17267168221E+02  0.84516057700E+02  0.82733360326E+02 0.  0.
       11    1    3    3    0    0 -0.28190023444E+02  0.17986295459E+02  0.16243100374E+02  0.37175563962E+02  0.00000000000E+00 0. -1.
      -12    1    3    3    0    0  0.28190023444E+02 -0.17986295459E+02 -0.33510268595E+02  0.47340493738E+02  0.00000000000E+00 0.  1.
</event>
<event>
 5   0  0.2392100E+01  0.8076192E+02  0.7957747E-01  0.1325529E+00
       -2   -1    0    0    0  501  0.00000000000E+00  0.00000000000E+00  0.18882018485E+02  0.18882018485E+02  0.00000000000E+00 0.  1.
        1   -1    0    0  501    0  0.00000000000E+00  0.00000000000E+00 -0.86358462770E+02  0.86358462770E+02  0.00000000000E+00 0. -1.
      -24    2    1    2    0    0  0.00000000000E+00  0.00000000000E+00 -0.67476444285E+02  0.10524048126E+03  0.80761923958E+02 0.  0.
       11    1    3    3    0    0 -0.20994397770E+01  0.28713188912E+02 -0.70636009070E+02  0.76277786034E+02  0.00000000000E+00 0. -1.
      -12    1    3    3    0    0  0.20994397770E+01 -0.28713188912E+02  0.31595647849E+01  0.28962695221E+02  0.00000000000E+00 0.  1.
</event>
<event>
 5   0  0.2392100E+01  0.7928981E+02  0.7957747E-01  0.1329485E+00
        1   -1    0    0  501    0  0.00000000000E+00  0.00000000000E+00  0.29369873274E+02  0.29369873274E+02  0.00000000000E+00 0. -1.
       -2   -1    0    0    0  501  0.00000000000E+00  0.00000000000E+00 -0.53514647119E+02  0.53514647119E+02  0.00000000000E+00 0.  1.
      -24    2    1    2    0    0  0.00000000000E+00  0.00000000000E+00 -0.24144773845E+02  0.82884520392E+02  0.79289807773E+02 0.  0.
       11    1    3    3    0    0 -0.12426452304E+02 -0.31795282219E+02  0.89999381143E+01  0.35303761475E+02  0.00000000000E+00 0. -1.
      -12    1    3    3    0    0  0.12426452304E+02  0.31795282219E+02 -0.33144711959E+02  0.47580758917E+02  0.00000000000E+00 0.  1.
</event>
<event>
 4   0  0.2392100E+01  0.1198159E+03  0.7957747E-01  0.1246035E+00
        1   -1    0    0  501    0  0.00000000000E+00  0.00000000000E+00  0.19319699233E+03  0.19319699233E+03  0.00000000000E+00 0. -1.
       -2   -1    0    0    0  501  0.00000000000E+00  0.00000000000E+00 -0.18576698585E+02  0.18576698585E+02  0.00000000000E+00 0.  1.
       11    1    1    2    0    0  0.32403551473E+02  0.17298480545E+02  0.17095820305E+03  0.17485975743E+03  0.00000000000E+00 0. -1.
      -12    1    1    2    0    0 -0.32403551473E+02 -0.17298480545E+02  0.36620906931E+01  0.36913933487E+02  0.00000000000E+00 0.  1.
</event>
<event>
 5   0  0.2392100E+01  0.7966419E+02  0.7957747E-01  0.1328470E+00
        1   -1    0    0  501    0  0.00000000000E+00  0.00000000000E+00  0.43351803932E+03  0.43351803932E+03  0.00000000000E+00 0. -1.
       -2   -1    0    0    0  501  0.00000000000E+00  0.00000000000E+00 -0.36598151612E+01  0.36598151612E+01  0.00000000000E+00 0.  1.
      -24    2    1    2    0    0  0.00000000000E+00  0.00000000000E+00  0.42985822415E+03  0.43717785448E+03  0.79664192532E+02 0.  0.
       11    1    3    3    0    0  0.22081478690E+02  0.20122245809E+02  0.70349906148E+02  0.76430398223E+02  0.00000000000E+00 0. -1.
      -12    1    3    3    0    0 -0.22081478690E+02 -0.20122245809E+02  0.35950831801E+03  0.36074745625E+03  0.00000000000E+00 0.  1.
</event>
<event>
 5   0  0.2392100E+01  0.8111803E+02  0.7957747E-01  0.1324587E+00
       -2   -1    0    0    0  501  0.00000000000E+00  0.00000000000E+00  0.12101724996E+03  0.12101724996E+03  0.00000000000E+00 0.  1.
        1   -1    0    0  501    0  0.00000000000E+00  0.00000000000E+00 -0.13593380401E+02  0.13593380401E+02  0.00000000000E+00 0. -1.
      -24    2    1    2    0    0  0.00000000000E+00  0.00000000000E+00  0.10742386956E+03  0.13461063036E+03  0.81118025464E+02 0.  0.
       11    1    3    3    0    0  0.90918980026E+01 -0.35911895259E+02  0.26308192276E+02  0.45436194947E+02  0.00000000000E+00 0. -1.
      -12    1    3    3    0    0 -0.90918980026E+01  0.35911895259E+02  0.81115677280E+02  0.89174435412E+02  0.00000000000E+00 0.  1.
</event>
<event>
 5   0  0.2392100E+01  0.8138114E+02  0.7957747E-01  0.1323894E+00
        3   -1    0    0  501    0  0.00000000000E+00  0.00000000000E+00  0.33980799401E+02  0.33980799401E+02  0.00000000000E+00 0. -1.
       -4   -1    0    0    0  501  0.00000000000E+00  0.00000000000E+00 -0.48725242371E+02  0.48725242371E+02  0.00000000000E+00 0.  1.
      -24    2    1    2    0    0  0.00000000000E+00  0.00000000000E+00 -0.14744442970E+02  0.82706041772E+02  0.81381144911E+02 0.  0.
       11    1    3    3    0    0 -0.33424662281E+02 -0.49168988988E+01  0.15676034073E+02  0.37244086613E+02  0.00000000000E+00 0. -1.
      -12    1    3    3    0    0  0.33424662281E+02  0.49168988988E+01 -0.30420477043E+02  0.45461955159E+02  0.00000000000E+00 0.  1.
</event>
<event>
 5   0  0.2392100E+01  0.7993080E+02  0.7957747E-01  0.1327751E+00
        1   -1    0    0  501    0  0.00000000000E+00  0.00000000000E+00  0.12587922497E+02  0.12587922497E+02  0.00000000000E+00 0. -1.
       -2   -1    0    0    0  501  0.00000000000E+00  0.00000000000E+00 -0.12688615418E+03  0.12688615418E+03  0.00000000000E+00 0.  1.
      -24    2    1    2    0    0  0.00000000000E+00  0.00000000000E+00 -0.11429823168E+03  0.13947407668E+03  0.79930796937E+02 0.  0.
       11    1    3    3    0    0  0.52580964155E+01  0.24936456485E+02 -0.34300778159E+01  0.25714584845E+02  0.00000000000E+00 0. -1.
      -12    1    3    3    0    0 -0.52580964155E+01 -0.24936456485E+02 -0.11086815387E+03  0.11375949183E+03  0.00000000000E+00 0.  1.
</event>
<event>
 5   0  0.2392100E+01  0.7937241E+02  0.7957747E-01  0.1329261E+00
       -2   -1    0    0    0  501  0.00000000000E+00  0.00000000000E+00  0.67384008670E+01  0.67384008670E+01  0.00000000000E+00 0.  1.
        1   -1    0    0  501    0  0.00000000000E+00  0.00000000000E+00 -0.23373419154E+03  0.23373419154E+03  0.00000000000E+00 0. -1.
      -24    2    1    2    0    0  0.00000000000E+00  0.00000000000E+00 -0.22699579068E+03  0.24047259241E+03  0.79372405254E+02 0.  0.
       11    1    3    3    0    0 -0.15017363658E+02  0.36018312263E+02 -0.91618135046E+02  0.99582742977E+02  0.00000000000E+00 0. -1.
      -12    1    3    3    0    0  0.15017363658E+02 -0.36018312263E+02 -0.13537765563E+03  0.14088984943E+03  0.00000000000E+00 0.  1.
</event>
<event>
 5   0  0.2392100E+01  0.7761532E+02  0.7957747E-01  0.1334105E+00
        1   -1    0    0  501    0  0.00000000000E+00  0.00000000000E+00  0.53325165584E+02  0.53325165584E+02  0.00000000000E+00 0. -1.
       -2   -1    0    0    0  501  0.00000000000E+00  0.00000000000E+00 -0.28242470651E+02  0.28242470651E+02  0.00000000000E+00 0.  1.
      -24    2    1    2    0    0  0.00000000000E+00  0.00000000000E+00  0.25082694933E+02  0.81567636235E+02  0.77615318693E+02 0.  0.
       11    1    3    3    0    0 -0.27059537062E+02  0.15211278605E+02  0.37017516047E+02  0.48310434040E+02  0.00000000000E+00 0. -1.
      -12    1    3    3    0    0  0.27059537062E+02 -0.15211278605E+02 -0.11934821115E+02  0.33257202195E+02  0.00000000000E+00 0.  1.
</event>
<event>
 5   0  0.2392100E+01  0.8051838E+02  0.7957747E-01  0.1326177E+00
        1   -1    0    0  501    0  0.00000000000E+00  0.00000000000E+00  0.25332515209E+03  0.25332515209E+03  0.00000000000E+00 0. -1.
       -2   -1    0    0    0  501  0.00000000000E+00  0.00000000000E+00 -0.63981101927E+01  0.63981101927E+01  0.00000000000E+00 0.  1.
      -24    2    1    2    0    0  0.00000000000E+00  0.00000000000E+00  0.24692704190E+03  0.25972326229E+03  0.80518376478E+02 0.  0.
       11    1    3    3    0    0 -0.21336394291E+02  0.32688887826E+02  0.15523191638E+03  0.16006483990E+03  0.00000000000E+00 0. -1.
      -12    1    3    3    0    0  0.21336394291E+02 -0.32688887826E+02  0.91695125524E+02  0.99658422391E+02  0.00000000000E+00 0.  1.
</event>
<event>
 5   0  0.2392100E+01  0.8027526E+02  0.7957747E-01  0.1326827E+00
       -2   -1    0    0    0  501  0.00000000000E+00  0.00000000000E+00  0.37088776264E+02  0.37088776264E+02  0.00000000000E+00 0.  1.
        1   -1    0    0  501    0  0.00000000000E+00  0.00000000000E+00 -0.43437115276E+02  0.43437115276E+02  0.00000000000E+00 0. -1.
      -24    2    1    2    0    0  0.00000000000E+00  0.00000000000E+00 -0.63483390119E+01  0.80525891540E+02  0.80275262691E+02 0.  0.
       11    1    3    3    0    0  0.30466395339E+02 -0.13130736442E+02  0.19488665128E+02  0.38476298587E+02  0.00000000000E+00 0. -1.
      -12    1    3    3    0    0 -0.30466395339E+02  0.13130736442E+02 -0.25837004140E+02  0.42049592952E+02  0.00000000000E+00 0.  1.
</event>
<event>
 5   0  0.2392100E+01  0.8029540E+02  0.7957747E-01  0.1326773E+00
        1   -1    0    0  501    0  0.00000000000E+00  0.00000000000E+00  0.29667314932E+02  0.29667314932E+02  0.00000000000E+00 0. -1.
       -2   -1    0    0    0  501  0.00000000000E+00  0.00000000000E+00 -0.54330429997E+02  0.54330429997E+02  0.00000000000E+00 0.  1.
      -24    2    1    2    0    0  0.00000000000E+00  0.00000000000E+00 -0.24663115065E+02  0.83997744929E+02  0.80295404031E+02 0.  0.
       11    1    3    3    0    0  0.20370411787E+02  0.31408171601E+02  0.28428316573E+01  0.37543423013E+02  0.00000000000E+00 0. -1.
      -12    1    3    3    0    0 -0.20370411787E+02 -0.31408171601E+02 -0.27505946722E+02  0.46454321917E+02  0.00000000000E+00 0.  1.
</event>
<event>
 5   0  0.2392100E+01  0.8604887E+02  0.7957747E-01  0.1312073E+00
        1   -1    0    0  501    0  0.00000000000E+00  0.00000000000E+00  0.19446613079E+02  0.19446613079E+02  0.00000000000E+00 0. -1.
       -2   -1    0    0    0  501  0.00000000000E+00  0.00000000000E+00 -0.95188912671E+02  0.95188912671E+02  0.00000000000E+00 0.  1.
      -24    2    1    2    0    0  0.00000000000E+00  0.00000000000E+00 -0.75742299592E+02  0.11463552575E+03  0.86048868770E+02 0.  0.
       11    1    3    3    0    0 -0.15015895775E+02  0.17883665144E+02  0.10269537433E+02  0.25510115719E+02  0.00000000000E+00 0. -1.
      -12    1    3    3    0    0  0.15015895775E+02 -0.17883665144E+02 -0.86011837025E+02  0.89125410031E+02  0.00000000000E+00 0.  1.
</event>
<event>
 5   0  0.2392100E+01  0.8024405E+02  0.7957747E-01  0.1326910E+00
        1   -1    0    0  501    0  0.00000000000E+00  0.00000000000E+00  0.14911997526E+03  0.14911997526E+03  0.00000000000E+00 0. -1.
       -2   -1    0    0    0  501  0.00000000000E+00  0.00000000000E+00 -0.10795179396E+02  0.10795179396E+02  0.00000000000E+00 0.  1.
      -24    2    1    2    0    0  0.00000000000E+00  0.00000000000E+00  0.13832479587E+03  0.15991515466E+03  0.80244049861E+02 0.  0.
       11    1    3    3    0    0  0.85220219784E+01 -0.38768677770E+02  0.80806849413E+02  0.90029895850E+02  0.00000000000E+00 0. -1.
      -12    1    3    3    0    0 -0.85220219784E+01  0.38768677770E+02  0.57517946454E+02  0.69885258810E+02  0.00000000000E+00 0.  1.
</event>
<event>
 5   0  0.2392100E+01  0.8146799E+02  0.7957747E-01  0.1323666E+00
       -2   -1    0    0    0  501  0.00000000000E+00  0.00000000000E+00  0.78279856227E+01  0.78279856227E+01  0.00000000000E+00 0.  1.
        1   -1    0    0  501    0  0.00000000000E+00  0.00000000000E+00 -0.21196494380E+03  0.21196494380E+03  0.00000000000E+00 0. -1.
      -24    2    1    2    0    0  0.00000000000E+00  0.00000000000E+00 -0.20413695818E+03  0.21979292943E+03  0.81467994516E+02 0.  0.
       11    1    3    3    0    0  0.69720192807E+01  0.38519035941E+02 -0.13246434800E+03  0.13812721916E+03  0.00000000000E+00 0. -1.
      -12    1    3    3    0    0 -0.69720192807E+01 -0.38519035941E+02 -0.71672610184E+02  0.81665710266E+02  0.00000000000E+00 0.  1.
</event>
<event>
 5   0  0.2392100E+01  0.8311938E+02  0.7957747E-01  0.1319390E+00
        3   -1    0    0  501    0  0.00000000000E+00  0.00000000000E+00  0.11045097197E+03  0.11045097197E+03  0.00000000000E+00 0. -1.
       -4   -1    0    0    0  501  0.00000000000E+00  0.00000000000E+00 -0.15637778291E+02  0.15637778291E+02  0.00000000000E+00 0.  1.
      -24    2    1    2    0    0  0.00000000000E+00  0.00000000000E+00  0.94813193681E+02  0.12608875026E+03  0.83119379490E+02 0.  0.
       11    1    3    3    0    0 -0.29188840189E+00 -0.18443053029E+02  0.10390141105E+03  0.10552599026E+03  0.00000000000E+00 0. -1.
      -12    1    3    3    0    0  0.29188840189E+00  0.18443053029E+02 -0.90882173647E+01  0.20562759998E+02  0.00000000000E+00 0.  1.
</event>
<event>
 5   0  0.2392100E+01  0.7957529E+02  0.7957747E-01  0.1328710E+00
        1   -1    0    0  501    0  0.00000000000E+00  0.00000000000E+00  0.45211563099E+02  0.45211563099E+02  0.00000000000E+00 0. -1.
       -2   -1    0    0    0  501  0.00000000000E+00  0.00000000000E+00 -0.35014419463E+02  0.35014419463E+02  0.00000000000E+00 0.  1.
      -24    2    1    2    0    0  0.00000000000E+00  0.00000000000E+00  0.10197143636E+02  0.80225982562E+02  0.79575288499E+02 0.  0.
       11    1    3    3    0    0 -0.28146596178E+02 -0.50863365218E+01  0.32982550983E+02  0.43657191447E+02  0.00000000000E+00 0. -1.
      -12    1    3    3    0    0  0.28146596178E+02  0.50863365218E+01 -0.22785407347E+02  0.36568791115E+02  0.00000000000E+00 0.  1.
</event>
<event>
 5   0  0.2392100E+01  0.9338813E+02  0.7957747E-01  0.1295102E+00
        1   -1    0    0  501    0  0.00000000000E+00  0.00000000000E+00  0.17481259468E+03  0.17481259468E+03  0.00000000000E+00 0. -1.
       -2   -1    0    0    0  501  0.00000000000E+00  0.00000000000E+00 -0.12472419071E+02  0.12472419071E+02  0.00000000000E+00 0.  1.
      -24    2    1    2    0    0  0.00000000000E+00  0.00000000000E+00  0.16234017561E+03  0.18728501375E+03  0.93388135000E+02 0.  0.
       11    1    3    3    0    0  0.27207808002E+02  0.34740383827E+02  0.11179353278E+03  0.12018715845E+03  0.00000000000E+00 0. -1.
      -12    1    3    3    0    0 -0.27207808002E+02 -0.34740383827E+02  0.50546642827E+02  0.67097855299E+02  0.00000000000E+00 0.  1.
</event>
<event>
 5   0  0.2392100E+01  0.8004604E+02  0.7957747E-01  0.1327441E+00
       -4   -1    0    0    0  501  0.00000000000E+00  0.00000000000E+00  0.10547269504E+02  0.10547269504E+02  0.00000000000E+00 0.  1.
        3   -1    0    0  501    0  0.00000000000E+00  0.00000000000E+00 -0.15187266815E+03  0.15187266815E+03  0.00000000000E+00 0. -1.
      -24    2    1    2    0    0  0.00000000000E+00  0.00000000000E+00 -0.14132539864E+03  0.16241993765E+03  0.80046035786E+02 0.  0.
       11    1    3    3    0    0  0.69013920669E+01  0.32530895365E+02 -0.11585037804E+03  0.12052882833E+03  0.00000000000E+00 0. -1.
      -12    1    3    3    0    0 -0.69013920669E+01 -0.32530895365E+02 -0.25475020601E+02  0.41891109323E+02  0.00000000000E+00 0.  1.
</event>
<event>
 5   0  0.2392100E+01  0.8090678E+02  0.7957747E-01  0.1325145E+00
       -2   -1    0    0    0  501  0.00000000000E+00  0.00000000000E+00  0.29734959222E+03  0.29734959222E+03  0.00000000000E+00 0.  1.
        1   -1    0    0  501    0  0.00000000000E+00  0.00000000000E+00 -0.55035445436E+01  0.55035445436E+01  0.00000000000E+00 0. -1.
      -24    2    1    2    0    0  0.00000000000E+00  0.00000000000E+00  0.29184604768E+03  0.30285313677E+03  0.80906779093E+02 0.  0.
       11    1    3    3    0    0  0.38582120536E+02 -0.70795394194E+01  0.10890910030E+03  0.11575790267E+03  0.00000000000E+00 0. -1.
      -12    1    3    3    0    0 -0.38582120536E+02  0.70795394194E+01  0.18293694738E+03  0.18709523409E+03  0.00000000000E+00 0.  1.
</event>
<event>
 5   0  0.2392100E+01  0.7937152E+02  0.7957747E-01  0.1329263E+00
       -2   -1    0    0    0  501  0.00000000000E+00  0.00000000000E+00  0.17329438135E+03  0.17329438135E+03  0.00000000000E+00 0.  1.
        1   -1    0    0  501    0  0.00000000000E+00  0.00000000000E+00 -0.90883483370E+01  0.90883483370E+01  0.00000000000E+00 0. -1.
      -24    2    1    2    0    0  0.00000000000E+00  0.00000000000E+00  0.16420603302E+03  0.18238272969E+03  0.79371523926E+02 0.  0.
       11    1    3    3    0    0 -0.12659136389E+02  0.39657372576E+01 -0.38427668306E+01  0.13811142713E+02  0.00000000000E+00 0. -1.
      -12    1    3    3    0    0  0.12659136389E+02 -0.39657372576E+01  0.16804879985E+03  0.16857158698E+03  0.00000000000E+00 0.  1.
</event>
<event>
 5   0  0.2392100E+01  0.8413621E+02  0.7957747E-01  0.1316812E+00
       -2   -1    0    0    0  501  0.00000000000E+00  0.00000000000E+00  0.24899370639E+02  0.24899370639E+02  0.00000000000E+00 0.  1.
        1   -1    0    0  501    0  0.00000000000E+00  0.00000000000E+00 -0.71075113811E+02  0.71075113811E+02  0.00000000000E+00 0. -1.
      -24    2    1    2    0    0  0.00000000000E+00  0.00000000000E+00 -0.46175743173E+02  0.95974484450E+02  0.84136213415E+02 0.  0.
       11    1    3    3    0    0 -0.91633488787E+01  0.34598900707E+02 -0.48304252542E+02  0.60119478594E+02  0.00000000000E+00 0. -1.
      -12    1    3    3    0    0  0.91633488787E+01 -0.34598900707E+02  0.21285093690E+01  0.35855005856E+02  0.00000000000E+00 0.  1.
</event>
<event>
 5   0  0.2392100E+01  0.8172668E+02  0.7957747E-01  0.1322988E+00
       -2   -1    0    0    0  501  0.00000000000E+00  0.00000000000E+00  0.89745303317E+02  0.89745303317E+02  0.00000000000E+00 0.  1.
        1   -1    0    0  501    0  0.00000000000E+00  0.00000000000E+00 -0.18606126931E+02  0.18606126931E+02  0.00000000000E+00 0. -1.
      -24    2    1    2    0    0  0.00000000000E+00  0.00000000000E+00  0.71139176386E+02  0.10835143025E+03  0.81726678754E+02 0.  0.
       11    1    3    3    0    0 -0.35240087822E+02  0.50254921884E-01  0.81434045167E+01  0.36168789755E+02  0.00000000000E+00 0. -1.
      -12    1    3    3    0    0  0.35240087822E+02 -0.50254921884E-01  0.62995771869E+02  0.72182640494E+02  0.00000000000E+00 0.  1.
</event>
<event>
 5   0  0.2392100E+01  0.7887631E+02  0.7957747E-01  0.1330614E+00
        1   -1    0    0  501    0  0.00000000000E+00  0.00000000000E+00  0.68002852514E+02  0.68002852514E+02  0.00000000000E+00 0. -1.
       -2   -1    0    0    0  501  0.00000000000E+00  0.00000000000E+00 -0.22872102414E+02  0.22872102414E+02  0.00000000000E+00 0.  1.
      -24    2    1    2    0    0  0.00000000000E+00  0.00000000000E+00  0.45130750100E+02  0.90874954928E+02  0.78876313483E+02 0.  0.
       11    1    3    3    0    0 -0.29815944523E+02 -0.12017022030E+01  0.52274286149E+02  0.60191657465E+02  0.00000000000E+00 0. -1.
      -12    1    3    3    0    0  0.29815944523E+02  0.12017022030E+01 -0.71435360491E+01  0.30683297464E+02  0.00000000000E+00 0.  1.
</event>
<event>
 5   0  0.2392100E+01  0.8003603E+02  0.7957747E-01  0.1327468E+00
        1   -1    0    0  501    0  0.00000000000E+00  0.00000000000E+00  0.12726670641E+02  0.12726670641E+02  0.00000000000E+00 0. -1.
       -2   -1    0    0    0  501  0.00000000000E+00  0.00000000000E+00 -0.12583349117E+03  0.12583349117E+03  0.00000000000E+00 0.  1.
      -24    2    1    2    0    0  0.00000000000E+00  0.00000000000E+00 -0.11310682053E+03  0.13856016181E+03  0.80036026833E+02 0.  0.
       11    1    3    3    0    0 -0.10272951674E+02  0.21840293102E+02 -0.12921662034E+01  0.24170263391E+02  0.00000000000E+00 0. -1.
      -12    1    3    3    0    0  0.10272951674E+02 -0.21840293102E+02 -0.11181465433E+03  0.11438989842E+03  0.00000000000E+00 0.  1.
</event>
<event>
 5   0  0.2392100E+01  0.7944128E+02  0.7957747E-01  0.1329074E+00
       -2   -1    0    0    0  501  0.00000000000E+00  0.00000000000E+00  0.39739624283E+03  0.39739624283E+03  0.00000000000E+00 0.  1.
        1   -1    0    0  501    0  0.00000000000E+00  0.00000000000E+00 -0.39701665463E+01  0.39701665463E+01  0.00000000000E+00 0. -1.
      -24    2    1    2    0    0  0.00000000000E+00  0.00000000000E+00  0.39342607629E+03  0.40136640938E+03  0.79441280678E+02 0.  0.
       11    1    3    3    0    0 -0.15125485616E+02  0.27497001443E+02  0.73694014156E+02  0.80097897138E+02  0.00000000000E+00 0. -1.
      -12    1    3    3    0    0  0.15125485616E+02 -0.27497001443E+02  0.31973206213E+03  0.32126851224E+03  0.00000000000E+00 0.  1.
</event>
<event>
 5   0  0.2392100E+01  0.7977043E+02  0.7957747E-01  0.1328183E+00
       -2   -1    0    0    0  501  0.00000000000E+00  0.00000000000E+00  0.12533885168E+03  0.12533885168E+03  0.00000000000E+00 0.  1.
        1   -1    0    0  501    0  0.00000000000E+00  0.00000000000E+00 -0.12692238227E+02  0.12692238227E+02  0.00000000000E+00 0. -1.
      -24    2    1    2    0    0  0.00000000000E+00  0.00000000000E+00  0.11264661345E+03  0.13803108990E+03  0.79770434736E+02 0.  0.
       11    1    3    3    0    0  0.59547769401E+01  0.24075083053E+02  0.22719233565E+01  0.24904429890E+02  0.00000000000E+00 0. -1.
      -12    1    3    3    0    0 -0.59547769401E+01 -0.24075083053E+02  0.11037469009E+03  0.11312666001E+03  0.00000000000E+00 0.  1.
</event>
<event>
 5   0  0.2392100E+01  0.7997449E+02  0.7957747E-01  0.1327633E+00
        3   -1    0    0  501    0  0.00000000000E+00  0.00000000000E+00  0.16339920997E+03  0.16339920997E+03  0.00000000000E+00 0. -1.
       -4   -1    0    0    0  501  0.00000000000E+00  0.00000000000E+00 -0.97857259639E+01  0.97857259639E+01  0.00000000000E+00 0.  1.
      -24    2    1    2    0    0  0.00000000000E+00  0.00000000000E+00  0.15361348400E+03  0.17318493593E+03  0.79974493220E+02 0.  0.
       11    1    3    3    0    0 -0.15770797172E+02  0.34792773185E+02  0.51209372530E+02  0.63887830956E+02  0.00000000000E+00 0. -1.
      -12    1    3    3    0    0  0.15770797172E+02 -0.34792773185E+02  0.10240411147E+03  0.10929710497E+03  0.00000000000E+00 0.  1.
</event>
<event>
 5   0  0.2392100E+01  0.7955076E+02  0.7957747E-01  0.1328777E+00
       -2   -1    0    0    0  501  0.00000000000E+00  0.00000000000E+00  0.12544767903E+02  0.12544767903E+02  0.00000000000E+00 0.  1.
        1   -1    0    0  501    0  0.00000000000E+00  0.00000000000E+00 -0.12611478985E+03  0.12611478985E+03  0.00000000000E+00 0. -1.
      -24    2    1    2    0    0  0.00000000000E+00  0.00000000000E+00 -0.11357002195E+03  0.13865955775E+03  0.79550757830E+02 0.  0.
       11    1    3    3    0    0  0.26262471794E+02  0.47679785850E+01 -0.10818614221E+03  0.11143021319E+03  0.00000000000E+00 0. -1.
      -12    1    3    3    0    0 -0.26262471794E+02 -0.47679785850E+01 -0.53838797371E+01  0.27229344567E+02  0.00000000000E+00 0.  1.
</event>
<event>
 5   0  0.2392100E+01  0.8017002E+02  0.7957747E-01  0.1327108E+00
       -4   -1    0    0    0  501  0.00000000000E+00  0.00000000000E+00  0.92741223284E+02  0.92741223284E+02  0.00000000000E+00 0.  1.
        3   -1    0    0  501    0  0.00000000000E+00  0.00000000000E+00 -0.17325715758E+02  0.17325715758E+02  0.00000000000E+00 0. -1.
      -24    2    1    2    0    0  0.00000000000E+00  0.00000000000E+00  0.75415507526E+02  0.11006693904E+03  0.80170021173E+02 0.  0.
       11    1    3    3    0    0 -0.23609144562E+02  0.27765893114E+02  0.14797214909E+02  0.39335659349E+02  0.00000000000E+00 0. -1.
      -12    1    3    3    0    0  0.23609144562E+02 -0.27765893114E+02  0.60618292617E+02  0.70731279694E+02  0.00000000000E+00 0.  1.
</event>
<event>
 5   0  0.2392100E+01  0.7918248E+02  0.7957747E-01  0.1329777E+00
       -2   -1    0    0    0  501  0.00000000000E+00  0.00000000000E+00  0.16335448093E+02  0.16335448093E+02  0.00000000000E+00 0.  1.
        1   -1    0    0  501    0  0.00000000000E+00  0.00000000000E+00 -0.95954904515E+02  0.95954904515E+02  0.00000000000E+00 0. -1.
      -24    2    1    2    0    0  0.00000000000E+00  0.00000000000E+00 -0.79619456422E+02  0.11229035261E+03  0.79182481950E+02 0.  0.
       11    1    3    3    0    0 -0.21071028228E+02  0.17688639933E+02  0.56540756365E+00  0.27517192788E+02  0.00000000000E+00 0. -1.
      -12    1    3    3    0    0  0.21071028228E+02 -0.17688639933E+02 -0.80184863986E+02  0.84773159819E+02  0.00000000000E+00 0.  1.
</event>
<event>
 5   0  0.2392100E+01  0.7987638E+02  0.7957747E-01  0.1327897E+00
        1   -1    0    0  501    0  0.00000000000E+00  0.00000000000E+00  0.82359201721E+02  0.82359201721E+02  0.00000000000E+00 0. -1.
       -2   -1    0    0    0  501  0.00000000000E+00  0.00000000000E+00 -0.19367099862E+02  0.19367099862E+02  0.00000000000E+00 0.  1.
      -24    2    1    2    0    0  0.00000000000E+00  0.00000000000E+00  0.62992101859E+02  0.10172630158E+03  0.79876376590E+02 0.  0.
       11    1    3    3    0    0  0.37594569300E+02  0.54121584541E+01  0.47218850276E+02  0.60599199016E+02  0.00000000000E+00 0. -1.
      -12    1    3    3    0    0 -0.37594569300E+02 -0.54121584541E+01  0.15773251583E+02  0.41127102567E+02  0.00000000000E+00 0.  1.
</event>
<event>
 5   0  0.2392100E+01  0.8061019E+02  0.7957747E-01  0.1325933E+00
       -4   -1    0    0    0  501  0.00000000000E+00  0.00000000000E+00  0.32083357049E+02  0.32083357049E+02  0.00000000000E+00 0.  1.
        3   -1    0    0  501    0  0.00000000000E+00  0.00000000000E+00 -0.50633751317E+02  0.50633751317E+02  0.00000000000E+00 0. -1.
      -24    2    1    2    0    0  0.00000000000E+00  0.00000000000E+00 -0.18550394268E+02  0.82717108365E+02  0.80610190974E+02 0.  0.
       11    1    3    3    0    0 -0.24824624835E+02 -0.22106097313E+02 -0.32664803209E+02  0.46603979501E+02  0.00000000000E+00 0. -1.
      -12    1    3    3    0    0  0.24824624835E+02  0.22106097313E+02  0.14114408941E+02  0.36113128864E+02  0.00000000000E+00 0.  1.
</event>
<event>
 5   0  0.2392100E+01  0.8150880E+02  0.7957747E-01  0.1323559E+00
       -2   -1    0    0    0  501  0.00000000000E+00  0.00000000000E+00  0.14459492866E+02  0.14459492866E+02  0.00000000000E+00 0.  1.
        1   -1    0    0  501    0  0.00000000000E+00  0.00000000000E+00 -0.11486716621E+03  0.11486716621E+03  0.00000000000E+00 0. -1.
      -24    2    1    2    0    0  0.00000000000E+00  0.00000000000E+00 -0.10040767334E+03  0.12932665908E+03  0.81508796344E+02 0.  0.
       11    1    3    3    0    0 -0.30571360661E+02 -0.20019494667E+02 -0.78831170083E+02  0.86889249254E+02  0.00000000000E+00 0. -1.
      -12    1    3    3    0    0  0.30571360661E+02  0.20019494667E+02 -0.21576503261E+02  0.42437409822E+02  0.00000000000E+00 0.  1.
</event>
<event>
 5   0  0.2392100E+01  0.8043238E+02  0.7957747E-01  0.1326407E+00
       -4   -1    0    0    0  501  0.00000000000E+00  0.00000000000E+00  0.38424899363E+02  0.38424899363E+02  0.00000000000E+00 0.  1.
        3   -1    0    0  501    0  0.00000000000E+00  0.00000000000E+00 -0.42090992037E+02  0.42090992037E+02  0.00000000000E+00 0. -1.
      -24    2    1    2    0    0  0.00000000000E+00  0.00000000000E+00 -0.36660926732E+01  0.80515891400E+02  0.80432384849E+02 0.  0.
       11    1    3    3    0    0 -0.22936017154E+02 -0.32763489615E+02 -0.60605812007E+01  0.40450436081E+02  0.00000000000E+00 0. -1.
      -12    1    3    3    0    0  0.22936017154E+02  0.32763489615E+02  0.23944885275E+01  0.40065455319E+02  0.00000000000E+00 0.  1.
</event>
<event>
 5   0  0.2392100E+01  0.1032959E+03  0.7957747E-01  0.1274789E+00
        3   -1    0    0  501    0  0.00000000000E+00  0.00000000000E+00  0.12298997618E+02  0.12298997618E+02  0.00000000000E+00 0. -1.
       -4   -1    0    0    0  501  0.00000000000E+00  0.00000000000E+00 -0.21688831687E+03  0.21688831687E+03  0.00000000000E+00 0.  1.
      -24    2    1    2    0    0  0.00000000000E+00  0.00000000000E+00 -0.20458931925E+03  0.22918731449E+03  0.10329586425E+03 0.  0.
       11    1    3    3    0    0  0.32030770514E+02 -0.38509488977E+02 -0.74356256910E+02  0.89653800492E+02  0.00000000000E+00 0. -1.
      -12    1    3    3    0    0 -0.32030770514E+02  0.38509488977E+02 -0.13023306234E+03  0.13953351400E+03  0.00000000000E+00 0.  1.
</event>
<event>
 5   0  0.2392100E+01  0.7980672E+02  0.7957747E-01  0.1328085E+00
       -4   -1    0    0    0  501  0.00000000000E+00  0.00000000000E+00  0.11435710843E+03  0.11435710843E+03  0.00000000000E+00 0.  1.
        3   -1    0    0  501    0  0.00000000000E+00  0.00000000000E+00 -0.13923735287E+02  0.13923735287E+02  0.00000000000E+00 0. -1.
      -24    2    1    2    0    0  0.00000000000E+00  0.00000000000E+00  0.10043337315E+03  0.12828084372E+03  0.79806719165E+02 0.  0.
       11    1    3    3    0    0 -0.42069417179E+00  0.39901073256E+02  0.50335627511E+02  0.64233542853E+02  0.00000000000E+00 0. -1.
      -12    1    3    3    0    0  0.42069417179E+00 -0.39901073256E+02  0.50097745636E+02  0.64047300867E+02  0.00000000000E+00 0.  1.
</event>
<event>
 5   0  0.2392100E+01  0.7853863E+02  0.7957747E-01  0.1331541E+00
        1   -1    0    0  501    0  0.00000000000E+00  0.00000000000E+00  0.19869490123E+03  0.19869490123E+03  0.00000000000E+00 0. -1.
       -2   -1    0    0    0  501  0.00000000000E+00  0.00000000000E+00 -0.77610397094E+01  0.77610397094E+01  0.00000000000E+00 0.  1.
      -24    2    1    2    0    0  0.00000000000E+00  0.00000000000E+00  0.19093386152E+03  0.20645594094E+03  0.78538627910E+02 0.  0.
       11    1    3    3    0    0  0.20556900360E+02  0.30386083758E+02  0.58648091797E+02  0.69177300540E+02  0.00000000000E+00 0. -1.
      -12    1    3    3    0    0 -0.20556900360E+02 -0.30386083758E+02  0.13228576972E+03  0.13727864040E+03  0.00000000000E+00 0.  1.
</event>
<event>
 5   0  0.2392100E+01  0.8003388E+02  0.7957747E-01  0.1327474E+00
        3   -1    0    0  501    0  0.00000000000E+00  0.00000000000E+00  0.19636029532E+01  0.19636029532E+01  0.00000000000E+00 0. -1.
       -4   -1    0    0    0  501  0.00000000000E+00  0.00000000000E+00 -0.81551888907E+03  0.81551888907E+03  0.00000000000E+00 0.  1.
      -24    2    1    2    0    0  0.00000000000E+00  0.00000000000E+00 -0.81355528612E+03  0.81748249202E+03  0.80033875302E+02 0.  0.
       11    1    3    3    0    0 -0.11578632175E+02  0.29724484781E+02 -0.15999397409E+03  0.16314313183E+03  0.00000000000E+00 0. -1.
      -12    1    3    3    0    0  0.11578632175E+02 -0.29724484781E+02 -0.65356131202E+03  0.65433936019E+03  0.00000000000E+00 0.  1.
</event>
<event>
 5   0  0.2392100E+01  0.8187496E+02  0.7957747E-01  0.1322601E+00
       -2   -1    0    0    0  501  0.00000000000E+00  0.00000000000E+00  0.36993304139E+02  0.36993304139E+02  0.00000000000E+00 0.  1.
        1   -1    0    0  501    0  0.00000000000E+00  0.00000000000E+00 -0.45302179339E+02  0.45302179339E+02  0.00000000000E+00 0. -1.
      -24    2    1    2    0    0  0.00000000000E+00  0.00000000000E+00 -0.83088752003E+01  0.82295483478E+02  0.81874960725E+02 0.  0.
       11    1    3    3    0    0  0.25695660865E+02  0.29800924953E+02 -0.15504698534E+02  0.42293708657E+02  0.00000000000E+00 0. -1.
      -12    1    3    3    0    0 -0.25695660865E+02 -0.29800924953E+02  0.71958233332E+01  0.40001774821E+02  0.00000000000E+00 0.  1.
</event>
<event>
 5   0  0.2392100E+01  0.8244166E+02  0.7957747E-01  0.1321131E+00
       -2   -1    0    0    0  501  0.00000000000E+00  0.00000000000E+00  0.40959280189E+02  0.40959280189E+02  0.00000000000E+00 0.  1.
        1   -1    0    0  501    0  0.00000000000E+00  0.00000000000E+00 -0.41484050533E+02  0.41484050533E+02  0.00000000000E+00 0. -1.
      -24    2    1    2    0    0  0.00000000000E+00  0.00000000000E+00 -0.52477034369E+00  0.82443330722E+02  0.82441660565E+02 0.  0.
       11    1    3    3    0    0  0.41151467950E+02 -0.23901136595E+01 -0.29224229703E+00  0.41221855408E+02  0.00000000000E+00 0. -1.
      -12    1    3    3    0    0 -0.41151467950E+02  0.23901136595E+01 -0.23252804667E+00  0.41221475314E+02  0.00000000000E+00 0.  1.
</event>
<event>
 5   0  0.2392100E+01  0.8037014E+02  0.7957747E-01  0.1326573E+00
        1   -1    0    0  501    0  0.00000000000E+00  0.00000000000E+00  0.92850072658E+02  0.92850072658E+02  0.00000000000E+00 0. -1.
       -2   -1    0    0    0  501  0.00000000000E+00  0.00000000000E+00 -0.17391907730E+02  0.17391907730E+02  0.00000000000E+00 0.  1.
      -24    2    1    2    0    0  0.00000000000E+00  0.00000000000E+00  0.75458164928E+02  0.11024198039E+03  0.80370141131E+02 0.  0.
       11    1    3    3    0    0  0.22043863157E+02 -0.29757640497E+02  0.59128619471E+02  0.69768493687E+02  0.00000000000E+00 0. -1.
      -12    1    3    3    0    0 -0.22043863157E+02  0.29757640497E+02  0.16329545457E+02  0.40473486700E+02  0.00000000000E+00 0.  1.
</event>
<event>
 5   0  0.2392100E+01  0.8221917E+02  0.7957747E-01  0.1321707E+00
       -2   -1    0    0    0  501  0.00000000000E+00  0.00000000000E+00  0.57225936904E+02  0.57225936904E+02  0.00000000000E+00 0.  1.
        1   -1    0    0  501    0  0.00000000000E+00  0.00000000000E+00 -0.29532026052E+02  0.29532026052E+02  0.00000000000E+00 0. -1.
      -24    2    1    2    0    0  0.00000000000E+00  0.00000000000E+00  0.27693910853E+02  0.86757962956E+02  0.82219167096E+02 0.  0.
       11    1    3    3    0    0  0.44967323961E+01 -0.14974203823E+02 -0.26272303676E+02  0.30572558330E+02  0.00000000000E+00 0. -1.
      -12    1    3    3    0    0 -0.44967323961E+01  0.14974203823E+02  0.53966214529E+02  0.56185404626E+02  0.00000000000E+00 0.  1.
</event>
<event>
 5   0  0.2392100E+01  0.8090055E+02  0.7957747E-01  0.1325162E+00
        1   -1    0    0  501    0  0.00000000000E+00  0.00000000000E+00  0.94378552968E+02  0.94378552968E+02  0.00000000000E+00 0. -1.
       -2   -1    0    0    0  501  0.00000000000E+00  0.00000000000E+00 -0.17336828631E+02  0.17336828631E+02  0.00000000000E+00 0.  1.
      -24    2    1    2    0    0  0.00000000000E+00  0.00000000000E+00  0.77041724337E+02  0.11171538160E+03  0.80900551277E+02 0.  0.
       11    1    3    3    0    0 -0.59107800221E+01  0.27976768464E+02  0.78029690824E+02  0.83103968283E+02  0.00000000000E+00 0. -1.
      -12    1    3    3    0    0  0.59107800221E+01 -0.27976768464E+02 -0.98796648730E+00  0.28611413316E+02  0.00000000000E+00 0.  1.
</event>
<event>
 5   0  0.2392100E+01  0.8199979E+02  0.7957747E-01  0.1322276E+00
       -2   -1    0    0    0  501  0.00000000000E+00  0.00000000000E+00  0.39799855743E+03  0.39799855743E+03  0.00000000000E+00 0.  1.
        1   -1    0    0  501    0  0.00000000000E+00  0.00000000000E+00 -0.42236115656E+01  0.42236115656E+01  0.00000000000E+00 0. -1.
      -24    2    1    2    0    0  0.00000000000E+00  0.00000000000E+00  0.39377494586E+03  0.40222216900E+03  0.81999788054E+02 0.  0.
       11    1    3    3    0    0  0.34099451592E+02  0.12622424107E+01  0.85396122885E+02  0.91961207357E+02  0.00000000000E+00 0. -1.
      -12    1    3    3    0    0 -0.34099451592E+02 -0.12622424107E+01  0.30837882298E+03  0.31026096164E+03  0.00000000000E+00 0.  1.
</event>
<event>
 5   0  0.2392100E+01  0.7917312E+02  0.7957747E-01  0.1329803E+00
        1   -1    0    0  501    0  0.00000000000E+00  0.00000000000E+00  0.40090829434E+02  0.40090829434E+02  0.00000000000E+00 0. -1.
       -2   -1    0    0    0  501  0.00000000000E+00  0.00000000000E+00 -0.39088637615E+02  0.39088637615E+02  0.00000000000E+00 0.  1.
      -24    2    1    2    0    0  0.00000000000E+00  0.00000000000E+00  0.10021918193E+01  0.79179467049E+02  0.79173124315E+02 0.  0.
       11    1    3    3    0    0 -0.13827310166E+02 -0.36108910122E+02  0.89898856434E+01  0.39697177992E+02  0.00000000000E+00 0. -1.
      -12    1    3    3    0    0  0.13827310166E+02  0.36108910122E+02 -0.79876938240E+01  0.39482289058E+02  0.00000000000E+00 0.  1.
</event>
<event>
 5   0  0.2392100E+01  0.7870381E+02  0.7957747E-01  0.1331087E+00
       -2   -1    0    0    0  501  0.00000000000E+00  0.00000000000E+00  0.97880759843E+01  0.97880759843E+01  0.00000000000E+00 0.  1.
        1   -1    0    0  501    0  0.00000000000E+00  0.00000000000E+00 -0.15821010359E+03  0.15821010359E+03  0.00000000000E+00 0. -1.
      -24    2    1    2    0    0  0.00000000000E+00  0.00000000000E+00 -0.14842202761E+03  0.16799817957E+03  0.78703812244E+02 0.  0.
       11    1    3    3    0    0 -0.23614089866E+02 -0.27139223826E+02 -0.10825776911E+03  0.11407851367E+03  0.00000000000E+00 0. -1.
      -12    1    3    3    0    0  0.23614089866E+02  0.27139223826E+02 -0.40164258499E+02  0.53919665900E+02  0.00000000000E+00 0.  1.
</event>
<event>
 5   0  0.2392100E+01  0.7709084E+02  0.7957747E-01  0.1335579E+00
        1   -1    0    0  501    0  0.00000000000E+00  0.00000000000E+00  0.49177100447E+02  0.49177100447E+02  0.00000000000E+00 0. -1.
       -2   -1    0    0    0  501  0.00000000000E+00  0.00000000000E+00 -0.30212219942E+02  0.30212219942E+02  0.00000000000E+00 0.  1.
      -24    2    1    2    0    0  0.00000000000E+00  0.00000000000E+00  0.18964880505E+02  0.79389320389E+02  0.77090839270E+02 0.  0.
       11    1    3    3    0    0 -0.26292714667E+02 -0.17511661000E+02  0.32226773043E+02  0.45127929448E+02  0.00000000000E+00 0. -1.
      -12    1    3    3    0    0  0.26292714667E+02  0.17511661000E+02 -0.13261892537E+02  0.34261390941E+02  0.00000000000E+00 0.  1.
</event>
<event>
 5   0  0.2392100E+01  0.8170413E+02  0.7957747E-01  0.1323047E+00
       -2   -1    0    0    0  501  0.00000000000E+00  0.00000000000E+00  0.36975537595E+02  0.36975537595E+02  0.00000000000E+00 0.  1.
        1   -1    0    0  501    0  0.00000000000E+00  0.00000000000E+00 -0.45135011838E+02  0.45135011838E+02  0.00000000000E+00 0. -1.
      -24    2    1    2    0    0  0.00000000000E+00  0.00000000000E+00 -0.81594742429E+01  0.82110549432E+02  0.81704132748E+02 0.  0.
       11    1    3    3    0    0 -0.37048100426E+01  0.40354580940E+02 -0.92700673662E+01  0.41571047248E+02  0.00000000000E+00 0. -1.
      -12    1    3    3    0    0  0.37048100426E+01 -0.40354580940E+02  0.11105931233E+01  0.40539502185E+02  0.00000000000E+00 0.  1.
</event>
<event>
 4   0  0.2392100E+01  0.1127795E+03  0.7957747E-01  0.1257607E+00
       -2   -1    0    0    0  501  0.00000000000E+00  0.00000000000E+00  0.12926356577E+02  0.12926356577E+02  0.00000000000E+00 0.  1.
        1   -1    0    0  501    0  0.00000000000E+00  0.00000000000E+00 -0.24599379845E+03  0.24599379845E+03  0.00000000000E+00 0. -1.
       11    1    1    2    0    0  0.43384913302E+02  0.35189391128E+02 -0.13420691683E+03  0.14536863649E+03  0.00000000000E+00 0. -1.
      -12    1    1    2    0    0 -0.43384913302E+02 -0.35189391128E+02 -0.98860525050E+02  0.11355151854E+03  0.00000000000E+00 0.  1.
</event>
<event>
 5   0  0.2392100E+01  0.8001720E+02  0.7957747E-01  0.1327519E+00
       -4   -1    0    0    0  501  0.00000000000E+00  0.00000000000E+00  0.55651647695E+03  0.55651647695E+03  0.00000000000E+00 0.  1.
        3   -1    0    0  501    0  0.00000000000E+00  0.00000000000E+00 -0.28762639098E+01  0.28762639098E+01  0.00000000000E+00 0. -1.
      -24    2    1    2    0    0  0.00000000000E+00  0.00000000000E+00  0.55364021304E+03  0.55939274086E+03  0.80017204596E+02 0.  0.
       11    1    3    3    0    0 -0.19087392709E+02  0.19377589398E+02  0.71702983395E+02  0.76688573849E+02  0.00000000000E+00 0. -1.
      -12    1    3    3    0    0  0.19087392709E+02 -0.19377589398E+02  0.48193722964E+03  0.48270416701E+03  0.00000000000E+00 0.  1.
</event>
<event>
 5   0  0.2392100E+01  0.8055001E+02  0.7957747E-01  0.1326093E+00
        3   -1    0    0  501    0  0.00000000000E+00  0.00000000000E+00  0.41049195253E+02  0.41049195253E+02  0.00000000000E+00 0. -1.
       -4   -1    0    0    0  501  0.00000000000E+00  0.00000000000E+00 -0.39515418456E+02  0.39515418456E+02  0.00000000000E+00 0.  1.
      -24    2    1    2    0    0  0.00000000000E+00  0.00000000000E+00  0.15337767967E+01  0.80564613709E+02  0.80550012482E+02 0.  0.
       11    1    3    3    0    0  0.17467030898E+02  0.80451075030E+01  0.36160521103E+02  0.40956125422E+02  0.00000000000E+00 0. -1.
      -12    1    3    3    0    0 -0.17467030898E+02 -0.80451075030E+01 -0.34626744307E+02  0.39608488287E+02  0.00000000000E+00 0.  1.
</event>
<event>
 5   0  0.2392100E+01  0.8353077E+02  0.7957747E-01  0.1318342E+00
       -2   -1    0    0    0  501  0.00000000000E+00  0.00000000000E+00  0.97139493829E+02  0.97139493829E+02  0.00000000000E+00 0.  1.
        1   -1    0    0  501    0  0.00000000000E+00  0.00000000000E+00 -0.17957138868E+02  0.17957138868E+02  0.00000000000E+00 0. -1.
      -24    2    1    2    0    0  0.00000000000E+00  0.00000000000E+00  0.79182354961E+02  0.11509663270E+03  0.83530769906E+02 0.  0.
       11    1    3    3    0    0  0.12814615508E+02 -0.35340899989E+02  0.14516751277E+02  0.40298010500E+02  0.00000000000E+00 0. -1.
      -12    1    3    3    0    0 -0.12814615508E+02  0.35340899989E+02  0.64665603684E+02  0.74798622197E+02  0.00000000000E+00 0.  1.
</event>
<event>
 5   0  0.2392100E+01  0.8061651E+02  0.7957747E-01  0.1325916E+00
       -2   -1    0    0    0  501  0.00000000000E+00  0.00000000000E+00  0.92810734800E+03  0.92810734800E+03  0.00000000000E+00 0.  1.
        1   -1    0    0  501    0  0.00000000000E+00  0.00000000000E+00 -0.17506113126E+01  0.17506113126E+01  0.00000000000E+00 0. -1.
      -24    2    1    2    0    0  0.00000000000E+00  0.00000000000E+00  0.92635673668E+03  0.92985795931E+03  0.80616505077E+02 0.  0.
       11    1    3    3    0    0  0.20134418419E+02  0.17542913051E+01  0.60915502618E+02  0.64180766607E+02  0.00000000000E+00 0. -1.
      -12    1    3    3    0    0 -0.20134418419E+02 -0.17542913051E+01  0.86544123407E+03  0.86567719270E+03  0.00000000000E+00 0.  1.
</event>
<event>
 5   0  0.2392100E+01  0.8145262E+02  0.7957747E-01  0.1323706E+00
       -2   -1    0    0    0  501  0.00000000000E+00  0.00000000000E+00  0.25548726301E+03  0.25548726301E+03  0.00000000000E+00 0.  1.
        1   -1    0    0  501    0  0.00000000000E+00  0.00000000000E+00 -0.64920348048E+01  0.64920348048E+01  0.00000000000E+00 0. -1.
      -24    2    1    2    0    0  0.00000000000E+00  0.00000000000E+00  0.24899522820E+03  0.26197929781E+03  0.81452616990E+02 0.  0.
       11    1    3    3    0    0 -0.32020622703E+01  0.39328447235E+02  0.15692563213E+03  0.16181048787E+03  0.00000000000E+00 0. -1.
      -12    1    3    3    0    0  0.32020622703E+01 -0.39328447235E+02  0.92069596070E+02  0.10016880994E+03  0.00000000000E+00 0.  1.
</event>
<event>
 5   0  0.2392100E+01  0.7956105E+02  0.7957747E-01  0.1328749E+00
       -2   -1    0    0    0  501  0.00000000000E+00  0.00000000000E+00  0.55408697735E+02  0.55408697735E+02  0.00000000000E+00 0.  1.
        1   -1    0    0  501    0  0.00000000000E+00  0.00000000000E+00 -0.28560319438E+02  0.28560319438E+02  0.00000000000E+00 0. -1.
      -24    2    1    2    0    0  0.00000000000E+00  0.00000000000E+00  0.26848378298E+02  0.83969017173E+02  0.79561048433E+02 0.  0.
       11    1    3    3    0    0  0.30843703961E+02  0.21782770513E+02  0.21405416694E+00  0.37760680402E+02  0.00000000000E+00 0. -1.
      -12    1    3    3    0    0 -0.30843703961E+02 -0.21782770513E+02  0.26634324131E+02  0.46208336771E+02  0.00000000000E+00 0.  1.
</event>
<event>
 5   0  0.2392100E+01  0.8539270E+02  0.7957747E-01  0.1313683E+00
       -2   -1    0    0    0  501  0.00000000000E+00  0.00000000000E+00  0.97669540040E+01  0.97669540040E+01  0.00000000000E+00 0.  1.
        1   -1    0    0  501    0  0.00000000000E+00  0.00000000000E+00 -0.18664759885E+03  0.18664759885E+03  0.00000000000E+00 0. -1.
      -24    2    1    2    0    0  0.00000000000E+00  0.00000000000E+00 -0.17688064485E+03  0.19641455285E+03  0.85392704909E+02 0.  0.
       11    1    3    3    0    0  0.41018159123E+02  0.28399575161E+01 -0.11490922140E+03  0.12204377862E+03  0.00000000000E+00 0. -1.
      -12    1    3    3    0    0 -0.41018159123E+02 -0.28399575161E+01 -0.61971423446E+02  0.74370774236E+02  0.00000000000E+00 0.  1.
</event>
<event>
 5   0  0.2392100E+01  0.7995709E+02  0.7957747E-01  0.1327680E+00
        1   -1    0    0  501    0  0.00000000000E+00  0.00000000000E+00  0.11791405009E+02  0.11791405009E+02  0.00000000000E+00 0. -1.
       -2   -1    0    0    0  501  0.00000000000E+00  0.00000000000E+00 -0.13554654187E+03  0.13554654187E+03  0.00000000000E+00 0.  1.
      -24    2    1    2    0    0  0.00000000000E+00  0.00000000000E+00 -0.12375513686E+03  0.14733794688E+03  0.79957092814E+02 0.  0.
       11    1    3    3    0    0 -0.30119042670E+02 -0.57033967008E+01 -0.14587705445E+02  0.33948293263E+02  0.00000000000E+00 0. -1.
      -12    1    3    3    0    0  0.30119042670E+02  0.57033967008E+01 -0.10916743142E+03  0.11338965362E+03  0.00000000000E+00 0.  1.
</event>
<event>
 5   0  0.2392100E+01  0.8420677E+02  0.7957747E-01  0.1316635E+00
        3   -1    0    0  501    0  0.00000000000E+00  0.00000000000E+00  0.12472974742E+03  0.12472974742E+03  0.00000000000E+00 0. -1.
       -4   -1    0    0    0  501  0.00000000000E+00  0.00000000000E+00 -0.14212286625E+02  0.14212286625E+02  0.00000000000E+00 0.  1.
      -24    2    1    2    0    0  0.00000000000E+00  0.00000000000E+00  0.11051746079E+03  0.13894203405E+03  0.84206767448E+02 0.  0.
       11    1    3    3    0    0 -0.73109986518E+01 -0.35993764593E+02  0.89222224847E+02  0.96486305752E+02  0.00000000000E+00 0. -1.
      -12    1    3    3    0    0  0.73109986518E+01  0.35993764593E+02  0.21295235947E+02  0.42455728294E+02  0.00000000000E+00 0.  1.
</event>
<event>
 5   0  0.2392100E+01  0.8458947E+02  0.7957747E-01  0.1315676E+00
       -2   -1    0    0    0  501  0.00000000000E+00  0.00000000000E+00  0.19273615458E+02  0.19273615458E+02  0.00000000000E+00 0.  1.
        1   -1    0    0  501    0  0.00000000000E+00  0.00000000000E+00 -0.92813124400E+02  0.92813124400E+02  0.00000000000E+00 0. -1.
      -24    2    1    2    0    0  0.00000000000E+00  0.00000000000E+00 -0.73539508941E+02  0.11208673986E+03  0.84589466700E+02 0.  0.
       11    1    3    3    0    0 -0.17607312429E+02 -0.25465043896E+02 -0.74952819180E+02  0.81095073923E+02  0.00000000000E+00 0. -1.
      -12    1    3    3    0    0  0.17607312429E+02  0.25465043896E+02  0.14133102387E+01  0.30991665935E+02  0.00000000000E+00 0.  1.
</event>
<event>
 5   0  0.2392100E+01  0.8525374E+02  0.7957747E-01  0.1314026E+00
        1   -1    0    0  501    0  0.00000000000E+00  0.00000000000E+00  0.67035411851E+03  0.67035411851E+03  0.00000000000E+00 0. -1.
       -2   -1    0    0    0  501  0.00000000000E+00  0.00000000000E+00 -0.27105825469E+01  0.27105825469E+01  0.00000000000E+00 0.  1.
      -24    2    1    2    0    0  0.00000000000E+00  0.00000000000E+00  0.66764353597E+03  0.67306470106E+03  0.85253743001E+02 0.  0.
       11    1    3    3    0    0 -0.30810978002E+02 -0.26065507460E+02  0.22548018167E+03  0.22906339597E+03  0.00000000000E+00 0. -1.
      -12    1    3    3    0    0  0.30810978002E+02  0.26065507460E+02  0.44216335430E+03  0.44400130510E+03  0.00000000000E+00 0.  1.
</event>
<event>
 5   0  0.2392100E+01  0.7474386E+02  0.7957747E-01  0.1342342E+00
       -2   -1    0    0    0  501  0.00000000000E+00  0.00000000000E+00  0.18950812529E+03  0.18950812529E+03  0.00000000000E+00 0.  1.
        1   -1    0    0  501    0  0.00000000000E+00  0.00000000000E+00 -0.73699268113E+01  0.73699268113E+01  0.00000000000E+00 0. -1.
      -24    2    1    2    0    0  0.00000000000E+00  0.00000000000E+00  0.18213819847E+03  0.19687805210E+03  0.74743856296E+02 0.  0.
       11    1    3    3    0    0  0.68717133177E+01 -0.19389165574E+02  0.88845901041E+01  0.22407501577E+02  0.00000000000E+00 0. -1.
      -12    1    3    3    0    0 -0.68717133177E+01  0.19389165574E+02  0.17325360837E+03  0.17447055052E+03  0.00000000000E+00 0.  1.
</event>
<event>
 5   0  0.2392100E+01  0.8597135E+02  0.7957747E-01  0.1312262E+00
       -2   -1    0    0    0  501  0.00000000000E+00  0.00000000000E+00  0.35844231077E+02  0.35844231077E+02  0.00000000000E+00 0.  1.
        1   -1    0    0  501    0  0.00000000000E+00  0.00000000000E+00 -0.51549951510E+02  0.51549951510E+02  0.00000000000E+00 0. -1.
      -24    2    1    2    0    0  0.00000000000E+00  0.00000000000E+00 -0.15705720433E+02  0.87394182586E+02  0.85971352761E+02 0.  0.
       11    1    3    3    0    0  0.34286290510E+02 -0.23706620129E+02  0.28192121171E+01  0.41779199512E+02  0.00000000000E+00 0. -1.
      -12    1    3    3    0    0 -0.34286290510E+02  0.23706620129E+02 -0.18524932550E+02  0.45614983074E+02  0.00000000000E+00 0.  1.
</event>
<event>
 5   0  0.2392100E+01  0.7982431E+02  0.7957747E-01  0.1328038E+00
       -2   -1    0    0    0  501  0.00000000000E+00  0.00000000000E+00  0.56608805081E+02  0.56608805081E+02  0.00000000000E+00 0.  1.
        1   -1    0    0  501    0  0.00000000000E+00  0.00000000000E+00 -0.28140144899E+02  0.28140144899E+02  0.00000000000E+00 0. -1.
      -24    2    1    2    0    0  0.00000000000E+00  0.00000000000E+00  0.28468660182E+02  0.84748949979E+02  0.79824306512E+02 0.  0.
       11    1    3    3    0    0 -0.22875171536E+02  0.16861025303E+02 -0.15519852887E+02  0.32379522552E+02  0.00000000000E+00 0. -1.
      -12    1    3    3    0    0  0.22875171536E+02 -0.16861025303E+02  0.43988513069E+02  0.52369427427E+02  0.00000000000E+00 0.  1.
</event>
<event>
 5   0  0.2392100E+01  0.8053601E+02  0.7957747E-01  0.1326130E+00
        1   -1    0    0  501    0  0.00000000000E+00  0.00000000000E+00  0.15273171379E+03  0.15273171379E+03  0.00000000000E+00 0. -1.
       -2   -1    0    0    0  501  0.00000000000E+00  0.00000000000E+00 -0.10616734797E+02  0.10616734797E+02  0.00000000000E+00 0.  1.
      -24    2    1    2    0    0  0.00000000000E+00  0.00000000000E+00  0.14211497899E+03  0.16334844858E+03  0.80536006863E+02 0.  0.
       11    1    3    3    0    0 -0.39138559638E+02 -0.94562482813E+01  0.72100851036E+02  0.82581960513E+02  0.00000000000E+00 0. -1.
      -12    1    3    3    0    0  0.39138559638E+02  0.94562482813E+01  0.70014127954E+02  0.80766488070E+02  0.00000000000E+00 0.  1.
</event>
<event>
 5   0  0.2392100E+01  0.7889684E+02  0.7957747E-01  0.1330558E+00
       -4   -1    0    0    0  501  0.00000000000E+00  0.00000000000E+00  0.47155833224E+02  0.47155833224E+02  0.00000000000E+00 0.  1.
        3   -1    0    0  501    0  0.00000000000E+00  0.00000000000E+00 -0.33000747532E+02  0.33000747532E+02  0.00000000000E+00 0. -1.
      -24    2    1    2    0    0  0.00000000000E+00  0.00000000000E+00  0.14155085692E+02  0.80156580755E+02  0.78896837626E+02 0.  0.
       11    1    3    3    0    0  0.13425769813E+02 -0.35516146506E+02 -0.37951925198E+01  0.38158242150E+02  0.00000000000E+00 0. -1.
      -12    1    3    3    0    0 -0.13425769813E+02  0.35516146506E+02  0.17950278212E+02  0.41998338605E+02  0.00000000000E+00 0.  1.
</event>
<event>
 5   0  0.2392100E+01  0.7997761E+02  0.7957747E-01  0.1327625E+00
        1   -1    0    0  501    0  0.00000000000E+00  0.00000000000E+00  0.67403465598E+02  0.67403465598E+02  0.00000000000E+00 0. -1.
       -2   -1    0    0    0  501  0.00000000000E+00  0.00000000000E+00 -0.23724364948E+02  0.23724364948E+02  0.00000000000E+00 0.  1.
      -24    2    1    2    0    0  0.00000000000E+00  0.00000000000E+00  0.43679100650E+02  0.91127830546E+02  0.79977607281E+02 0.  0.
       11    1    3    3    0    0  0.13251897328E+02 -0.25941727960E+02  0.53054546906E+02  0.60525787725E+02  0.00000000000E+00 0. -1.
      -12    1    3    3    0    0 -0.13251897328E+02  0.25941727960E+02 -0.93754462558E+01  0.30602042821E+02  0.00000000000E+00 0.  1.
</event>
<event>
 5   0  0.2392100E+01  0.7871645E+02  0.7957747E-01  0.1331052E+00
       -2   -1    0    0    0  501  0.00000000000E+00  0.00000000000E+00  0.76712295093E+01  0.76712295093E+01  0.00000000000E+00 0.  1.
        1   -1    0    0  501    0  0.00000000000E+00  0.00000000000E+00 -0.20193241732E+03  0.20193241732E+03  0.00000000000E+00 0. -1.
      -24    2    1    2    0    0  0.00000000000E+00  0.00000000000E+00 -0.19426118781E+03  0.20960364683E+03  0.78716451104E+02 0.  0.
       11    1    3    3    0    0  0.16400204743E+02  0.30711502474E+02 -0.14600575806E+03  0.15009944866E+03  0.00000000000E+00 0. -1.
      -12    1    3    3    0    0 -0.16400204743E+02 -0.30711502474E+02 -0.48255429745E+02  0.59504198168E+02  0.00000000000E+00 0.  1.
</event>
<event>
 5   0  0.2392100E+01  0.8232887E+02  0.7957747E-01  0.1321422E+00
        3   -1    0    0  501    0  0.00000000000E+00  0.00000000000E+00  0.10015595794E+03  0.10015595794E+03  0.00000000000E+00 0. -1.
       -4   -1    0    0    0  501  0.00000000000E+00  0.00000000000E+00 -0.16918720464E+02  0.16918720464E+02  0.00000000000E+00 0.  1.
      -24    2    1    2    0    0  0.00000000000E+00  0.00000000000E+00  0.83237237478E+02  0.11707467841E+03  0.82328868696E+02 0.  0.
       11    1    3    3    0    0 -0.36024119647E+01  0.26603943013E+02  0.85993537552E+02  0.90086822880E+02  0.00000000000E+00 0. -1.
      -12    1    3    3    0    0  0.36024119647E+01 -0.26603943013E+02 -0.27563000739E+01  0.26987855526E+02  0.00000000000E+00 0.  1.
</event>
<event>
 5   0  0.2392100E+01  0.8061100E+02  0.7957747E-01  0.1325931E+00
       -2   -1    0    0    0  501  0.00000000000E+00  0.00000000000E+00  0.22692753804E+02  0.22692753804E+02  0.00000000000E+00 0.  1.
        1   -1    0    0  501    0  0.00000000000E+00  0.00000000000E+00 -0.71588196640E+02  0.71588196640E+02  0.00000000000E+00 0. -1.
      -24    2    1    2    0    0  0.00000000000E+00  0.00000000000E+00 -0.48895442836E+02  0.94280950445E+02  0.80610999787E+02 0.  0.
       11    1    3    3    0    0  0.30888847498E+02  0.25880538759E+02 -0.25361293361E+02  0.47614266635E+02  0.00000000000E+00 0. -1.
      -12    1    3    3    0    0 -0.30888847498E+02 -0.25880538759E+02 -0.23534149475E+02  0.46666683809E+02  0.00000000000E+00 0.  1.
</event>
<event>
 5   0  0.2392100E+01  0.8447693E+02  0.7957747E-01  0.1315957E+00
        1   -1    0    0  501    0  0.00000000000E+00  0.00000000000E+00  0.84294951765E+02  0.84294951765E+02  0.00000000000E+00 0. -1.
       -2   -1    0    0    0  501  0.00000000000E+00  0.00000000000E+00 -0.21164827256E+02  0.21164827256E+02  0.00000000000E+00 0.  1.
      -24    2    1    2    0    0  0.00000000000E+00  0.00000000000E+00  0.63130124509E+02  0.10545977902E+03  0.84476933956E+02 0.  0.
       11    1    3    3    0    0 -0.12571700043E+01 -0.26912796168E+02  0.72175198193E+02  0.77039848832E+02  0.00000000000E+00 0. -1.
      -12    1    3    3    0    0  0.12571700043E+01  0.26912796168E+02 -0.90450736832E+01  0.28419930189E+02  0.00000000000E+00 0.  1.
</event>
<event>
 5   0  0.2392100E+01  0.7793196E+02  0.7957747E-01  0.1333221E+00
        1   -1    0    0  501    0  0.00000000000E+00  0.00000000000E+00  0.81687840996E+02  0.81687840996E+02  0.00000000000E+00 0. -1.
       -2   -1    0    0    0  501  0.00000000000E+00  0.00000000000E+00 -0.18587191632E+02  0.18587191632E+02  0.00000000000E+00 0.  1.
      -24    2    1    2    0    0  0.00000000000E+00  0.00000000000E+00  0.63100649364E+02  0.10027503263E+03  0.77931958902E+02 0.  0.
       11    1    3    3    0    0 -0.23813502802E+01 -0.37392108339E+02  0.45319031756E+02  0.58801830196E+02  0.00000000000E+00 0. -1.
      -12    1    3    3    0    0  0.23813502802E+01  0.37392108339E+02  0.17781617609E+02  0.41473202432E+02  0.00000000000E+00 0.  1.
</event>
<event>
 5   0  0.2392100E+01  0.7735187E+02  0.7957747E-01  0.1334843E+00
       -4   -1    0    0    0  501  0.00000000000E+00  0.00000000000E+00  0.62575236649E+02  0.62575236649E+02  0.00000000000E+00 0.  1.
        3   -1    0    0  501    0  0.00000000000E+00  0.00000000000E+00 -0.23904468330E+02  0.23904468330E+02  0.00000000000E+00 0. -1.
      -24    2    1    2    0    0  0.00000000000E+00  0.00000000000E+00  0.38670768319E+02  0.86479704979E+02  0.77351865206E+02 0.  0.
       11    1    3    3    0    0  0.27042679798E+02 -0.94800088774E+01 -0.97036979646E+01  0.30254567476E+02  0.00000000000E+00 0. -1.
      -12    1    3    3    0    0 -0.27042679798E+02  0.94800088774E+01  0.48374466284E+02  0.56225137503E+02  0.00000000000E+00 0.  1.
</event>
<event>
 5   0  0.2392100E+01  0.7971609E+02  0.7957747E-01  0.1328330E+00
       -2   -1    0    0    0  501  0.00000000000E+00  0.00000000000E+00  0.15839357791E+02  0.15839357791E+02  0.00000000000E+00 0.  1.
        1   -1    0    0  501    0  0.00000000000E+00  0.00000000000E+00 -0.10029848958E+03  0.10029848958E+03  0.00000000000E+00 0. -1.
      -24    2    1    2    0    0  0.00000000000E+00  0.00000000000E+00 -0.84459131785E+02  0.11613784737E+03  0.79716087769E+02 0.  0.
       11    1    3    3    0    0 -0.32573965311E+02 -0.19252437241E+02 -0.60481138957E+02  0.71342047387E+02  0.00000000000E+00 0. -1.
      -12    1    3    3    0    0  0.32573965311E+02  0.19252437241E+02 -0.23977992828E+02  0.44795799980E+02  0.00000000000E+00 0.  1.
</event>
<event>
 5   0  0.2392100E+01  0.8024502E+02  0.7957747E-01  0.1326907E+00
        1   -1    0    0  501    0  0.00000000000E+00  0.00000000000E+00  0.62711160296E+02  0.62711160296E+02  0.00000000000E+00 0. -1.
       -2   -1    0    0    0  501  0.00000000000E+00  0.00000000000E+00 -0.25670326005E+02  0.25670326005E+02  0.00000000000E+00 0.  1.
      -24    2    1    2    0    0  0.00000000000E+00  0.00000000000E+00  0.37040834291E+02  0.88381486301E+02  0.80245022997E+02 0.  0.
       11    1    3    3    0    0 -0.32870355742E+01 -0.22437251631E+02  0.54976118163E+02  0.59469390714E+02  0.00000000000E+00 0. -1.
      -12    1    3    3    0    0  0.32870355742E+01  0.22437251631E+02 -0.17935283872E+02  0.28912095587E+02  0.00000000000E+00 0.  1.
</event>
<event>
 5   0  0.2392100E+01  0.7678605E+02  0.7957747E-01  0.1336442E+00
        1   -1    0    0  501    0  0.00000000000E+00  0.00000000000E+00  0.23987314425E+03  0.23987314425E+03  0.00000000000E+00 0. -1.
       -2   -1    0    0    0  501  0.00000000000E+00  0.00000000000E+00 -0.61450157849E+01  0.61450157849E+01  0.00000000000E+00 0.  1.
      -24    2    1    2    0    0  0.00000000000E+00  0.00000000000E+00  0.23372812847E+03  0.24601816004E+03  0.76786047113E+02 0.  0.
       11    1    3    3    0    0  0.37752003025E+02  0.52370340918E+01  0.13168000800E+03  0.13708488161E+03  0.00000000000E+00 0. -1.
      -12    1    3    3    0    0 -0.37752003025E+02 -0.52370340918E+01  0.10204812047E+03  0.10893327843E+03  0.00000000000E+00 0.  1.
</event>
<event>
 5   0  0.2392100E+01  0.8027790E+02  0.7957747E-01  0.1326819E+00
        3   -1    0    0  501    0  0.00000000000E+00  0.00000000000E+00  0.14450559989E+03  0.14450559989E+03  0.00000000000E+00 0. -1.
       -4   -1    0    0    0  501  0.00000000000E+00  0.00000000000E+00 -0.11149292026E+02  0.11149292026E+02  0.00000000000E+00 0.  1.
      -24    2    1    2    0    0  0.00000000000E+00  0.00000000000E+00  0.13335630787E+03  0.15565489192E+03  0.80277895651E+02 0.  0.
       11    1    3    3    0    0 -0.31172677326E+02  0.66295603870E+01  0.11399206031E+03  0.11836332496E+03  0.00000000000E+00 0. -1.
      -12    1    3    3    0    0  0.31172677326E+02 -0.66295603870E+01  0.19364247559E+02  0.37291566957E+02  0.00000000000E+00 0.  1.
</event>
<event>
 5   0  0.2392100E+01  0.8138906E+02  0.7957747E-01  0.1323873E+00
       -2   -1    0    0    0  501  0.00000000000E+00  0.00000000000E+00  0.14230750369E+03  0.14230750369E+03  0.00000000000E+00 0.  1.
        1   -1    0    0  501    0  0.00000000000E+00  0.00000000000E+00 -0.11637087382E+02  0.11637087382E+02  0.00000000000E+00 0. -1.
      -24    2    1    2    0    0  0.00000000000E+00  0.00000000000E+00  0.13067041631E+03  0.15394459107E+03  0.81389062055E+02 0.  0.
       11    1    3    3    0    0 -0.29871384337E+02 -0.58670121419E+01  0.11641610000E+03  0.12033050225E+03  0.00000000000E+00 0. -1.
      -12    1    3    3    0    0  0.29871384337E+02  0.58670121419E+01  0.14254316310E+02  0.33614088819E+02  0.00000000000E+00 0.  1.
</event>
<event>
 5   0  0.2392100E+01  0.6950579E+02  0.7957747E-01  0.1358509E+00
        1   -1    0    0  501    0  0.00000000000E+00  0.00000000000E+00  0.35193854538E+02  0.35193854538E+02  0.00000000000E+00 0. -1.
       -2   -1    0    0    0  501  0.00000000000E+00  0.00000000000E+00 -0.34317460852E+02  0.34317460852E+02  0.00000000000E+00 0.  1.
      -24    2    1    2    0    0  0.00000000000E+00  0.00000000000E+00  0.87639368539E+00  0.69511315390E+02  0.69505790416E+02 0.  0.
       11    1    3    3    0    0 -0.11512293091E+02  0.16876501046E+02  0.28554743746E+02  0.35110149104E+02  0.00000000000E+00 0. -1.
      -12    1    3    3    0    0  0.11512293091E+02 -0.16876501046E+02 -0.27678350060E+02  0.34401166286E+02  0.00000000000E+00 0.  1.
</event>
<event>
 5   0  0.2392100E+01  0.7922001E+02  0.7957747E-01  0.1329675E+00
       -2   -1    0    0    0  501  0.00000000000E+00  0.00000000000E+00  0.10672591260E+02  0.10672591260E+02  0.00000000000E+00 0.  1.
        1   -1    0    0  501    0  0.00000000000E+00  0.00000000000E+00 -0.14700764153E+03  0.14700764153E+03  0.00000000000E+00 0. -1.
      -24    2    1    2    0    0  0.00000000000E+00  0.00000000000E+00 -0.13633505027E+03  0.15768023279E+03  0.79220009342E+02 0.  0.
       11    1    3    3    0    0 -0.16369780444E+02  0.34185131314E+02 -0.91066709454E+02  0.98639436766E+02  0.00000000000E+00 0. -1.
      -12    1    3    3    0    0  0.16369780444E+02 -0.34185131314E+02 -0.45268340813E+02  0.59040796020E+02  0.00000000000E+00 0.  1.
</event>
<event>
 5   0  0.2392100E+01  0.8182261E+02  0.7957747E-01  0.1322738E+00
        1   -1    0    0  501    0  0.00000000000E+00  0.00000000000E+00  0.19146363412E+03  0.19146363412E+03  0.00000000000E+00 0. -1.
       -2   -1    0    0    0  501  0.00000000000E+00  0.00000000000E+00 -0.87417905927E+01  0.87417905927E+01  0.00000000000E+00 0.  1.
      -24    2    1    2    0    0  0.00000000000E+00  0.00000000000E+00  0.18272184352E+03  0.20020542471E+03  0.81822612903E+02 0.  0.
       11    1    3    3    0    0  0.32647167488E+01 -0.31161557731E+02  0.15572835541E+03  0.15884905330E+03  0.00000000000E+00 0. -1.
      -12    1    3    3    0    0 -0.32647167488E+01  0.31161557731E+02  0.26993488118E+02  0.41356371413E+02  0.00000000000E+00 0.  1.
</event>
<event>
 5   0  0.2392100E+01  0.8065533E+02  0.7957747E-01  0.1325813E+00
       -4   -1    0    0    0  501  0.00000000000E+00  0.00000000000E+00  0.43917251313E+02  0.43917251313E+02  0.00000000000E+00 0.  1.
        3   -1    0    0  501    0  0.00000000000E+00  0.00000000000E+00 -0.37031473480E+02  0.37031473480E+02  0.00000000000E+00 0. -1.
      -24    2    1    2    0    0  0.00000000000E+00  0.00000000000E+00  0.68857778332E+01  0.80948724794E+02  0.80655329082E+02 0.  0.
       11    1    3    3    0    0  0.23805879488E+02  0.22634377414E+02 -0.20036346485E+02  0.38477137622E+02  0.00000000000E+00 0. -1.
      -12    1    3    3    0    0 -0.23805879488E+02 -0.22634377414E+02  0.26922124318E+02  0.42471587172E+02  0.00000000000E+00 0.  1.
</event>
<event>
 5   0  0.2392100E+01  0.8108256E+02  0.7957747E-01  0.1324681E+00
       -2   -1    0    0    0  501  0.00000000000E+00  0.00000000000E+00  0.71506266495E+01  0.71506266495E+01  0.00000000000E+00 0.  1.
        1   -1    0    0  501    0  0.00000000000E+00  0.00000000000E+00 -0.22985334787E+03  0.22985334787E+03  0.00000000000E+00 0. -1.
      -24    2    1    2    0    0  0.00000000000E+00  0.00000000000E+00 -0.22270272122E+03  0.23700397452E+03  0.81082562238E+02 0.  0.
       11    1    3    3    0    0  0.30278167155E+02  0.97846397561E+01 -0.18478134460E+03  0.18750107171E+03  0.00000000000E+00 0. -1.
      -12    1    3    3    0    0 -0.30278167155E+02 -0.97846397561E+01 -0.37921376618E+02  0.49502902804E+02  0.00000000000E+00 0.  1.
</event>
<event>
 5   0  0.2392100E+01  0.7896363E+02  0.7957747E-01  0.1330375E+00
       -2   -1    0    0    0  501  0.00000000000E+00  0.00000000000E+00  0.13753124780E+03  0.13753124780E+03  0.00000000000E+00 0.  1.
        1   -1    0    0  501    0  0.00000000000E+00  0.00000000000E+00 -0.11334251196E+02  0.11334251196E+02  0.00000000000E+00 0. -1.
      -24    2    1    2    0    0  0.00000000000E+00  0.00000000000E+00  0.12619699660E+03  0.14886549899E+03  0.78963629852E+02 0.  0.
       11    1    3    3    0    0  0.30924551906E+02 -0.24104822937E+02  0.71828470683E+02  0.81833364834E+02  0.00000000000E+00 0. -1.
      -12    1    3    3    0    0 -0.30924551906E+02  0.24104822937E+02  0.54368525917E+02  0.67032134159E+02  0.00000000000E+00 0.  1.
</event>
<event>
 5   0  0.2392100E+01  0.8117812E+02  0.7957747E-01  0.1324428E+00
       -4   -1    0    0    0  501  0.00000000000E+00  0.00000000000E+00  0.83119784250E+01  0.83119784250E+01  0.00000000000E+00 0.  1.
        3   -1    0    0  501    0  0.00000000000E+00  0.00000000000E+00 -0.19820455104E+03  0.19820455104E+03  0.00000000000E+00 0. -1.
      -24    2    1    2    0    0  0.00000000000E+00  0.00000000000E+00 -0.18989257261E+03  0.20651652946E+03  0.81178123949E+02 0.  0.
       11    1    3    3    0    0 -0.39150218523E+02 -0.10499363069E+02 -0.89552232444E+02  0.98298415912E+02  0.00000000000E+00 0. -1.
      -12    1    3    3    0    0  0.39150218523E+02  0.10499363069E+02 -0.10034034017E+03  0.10821811355E+03  0.00000000000E+00 0.  1.
</event>
<event>
 5   0  0.2392100E+01  0.8112118E+02  0.7957747E-01  0.1324579E+00
        3   -1    0    0  501    0  0.00000000000E+00  0.00000000000E+00  0.35361597986E+01  0.35361597986E+01  0.00000000000E+00 0. -1.
       -4   -1    0    0    0  501  0.00000000000E+00  0.00000000000E+00 -0.46523954292E+03  0.46523954292E+03  0.00000000000E+00 0.  1.
      -24    2    1    2    0    0  0.00000000000E+00  0.00000000000E+00 -0.46170338312E+03  0.46877570272E+03  0.81121177712E+02 0.  0.
       11    1    3    3    0    0  0.18266421107E+02  0.18151946579E+02 -0.49764417543E+02  0.56032602635E+02  0.00000000000E+00 0. -1.
      -12    1    3    3    0    0 -0.18266421107E+02 -0.18151946579E+02 -0.41193896557E+03  0.41274310008E+03  0.00000000000E+00 0.  1.
</event>
<event>
 5   0  0.2392100E+01  0.8029839E+02  0.7957747E-01  0.1326765E+00
       -2   -1    0    0    0  501  0.00000000000E+00  0.00000000000E+00  0.44390418226E+03  0.44390418226E+03  0.00000000000E+00 0.  1.
        1   -1    0    0  501    0  0.00000000000E+00  0.00000000000E+00 -0.36313197472E+01  0.36313197472E+01  0.00000000000E+00 0. -1.
      -24    2    1    2    0    0  0.00000000000E+00  0.00000000000E+00  0.44027286252E+03  0.44753550201E+03  0.80298394079E+02 0.  0.
       11    1    3    3    0    0 -0.92328682782E+01 -0.27341626726E+02  0.64564764194E+02  0.70720712553E+02  0.00000000000E+00 0. -1.
      -12    1    3    3    0    0  0.92328682782E+01  0.27341626726E+02  0.37570809832E+03  0.37681478946E+03  0.00000000000E+00 0.  1.
</event>
<event>
 5   0  0.2392100E+01  0.8394607E+02  0.7957747E-01  0.1317291E+00
       -2   -1    0    0    0  501  0.00000000000E+00  0.00000000000E+00  0.91062204086E+02  0.91062204086E+02  0.00000000000E+00 0.  1.
        1   -1    0    0  501    0  0.00000000000E+00  0.00000000000E+00 -0.19346509377E+02  0.19346509377E+02  0.00000000000E+00 0. -1.
      -24    2    1    2    0    0  0.00000000000E+00  0.00000000000E+00  0.71715694709E+02  0.11040871346E+03  0.83946072815E+02 0.  0.
       11    1    3    3    0    0 -0.80639246023E+01 -0.21307394071E+02 -0.10506781733E+02  0.25088331640E+02  0.00000000000E+00 0. -1.
      -12    1    3    3    0    0  0.80639246023E+01  0.21307394071E+02  0.82222476442E+02  0.85320381823E+02  0.00000000000E+00 0.  1.
</event>
<event>
 5   0  0.2392100E+01  0.7372974E+02  0.7957747E-01  0.1345352E+00
        3   -1    0    0  501    0  0.00000000000E+00  0.00000000000E+00  0.43989152908E+02  0.43989152908E+02  0.00000000000E+00 0. -1.
       -4   -1    0    0    0  501  0.00000000000E+00  0.00000000000E+00 -0.30894402514E+02  0.30894402514E+02  0.00000000000E+00 0.  1.
      -24    2    1    2    0    0  0.00000000000E+00  0.00000000000E+00  0.13094750394E+02  0.74883555421E+02  0.73729738808E+02 0.  0.
       11    1    3    3    0    0  0.12388822348E+02  0.32025877605E+02  0.20169153279E+02  0.39823793133E+02  0.00000000000E+00 0. -1.
      -12    1    3    3    0    0 -0.12388822348E+02 -0.32025877605E+02 -0.70744028851E+01  0.35059762288E+02  0.00000000000E+00 0.  1.
</event>
<event>
 5   0  0.2392100E+01  0.7951558E+02  0.7957747E-01  0.1328872E+00
       -2   -1    0    0    0  501  0.00000000000E+00  0.00000000000E+00  0.24257993056E+02  0.24257993056E+02  0.00000000000E+00 0.  1.
        1   -1    0    0  501    0  0.00000000000E+00  0.00000000000E+00 -0.65161285093E+02  0.65161285093E+02  0.00000000000E+00 0. -1.
      -24    2    1    2    0    0  0.00000000000E+00  0.00000000000E+00 -0.40903292037E+02  0.89419278150E+02  0.79515583412E+02 0.  0.
       11    1    3    3    0    0  0.11844493427E+02 -0.34759309455E+02 -0.37586944409E+02  0.52547883005E+02  0.00000000000E+00 0. -1.
      -12    1    3    3    0    0 -0.11844493427E+02  0.34759309455E+02 -0.33163476283E+01  0.36871395145E+02  0.00000000000E+00 0.  1.
</event>
<event>
 5   0  0.2392100E+01  0.7986014E+02  0.7957747E-01  0.1327941E+00
        1   -1    0    0  501    0  0.00000000000E+00  0.00000000000E+00  0.63105053208E+02  0.63105053208E+02  0.00000000000E+00 0. -1.
       -2   -1    0    0    0  501  0.00000000000E+00  0.00000000000E+00 -0.25265969513E+02  0.25265969513E+02  0.00000000000E+00 0.  1.
      -24    2    1    2    0    0  0.00000000000E+00  0.00000000000E+00  0.37839083695E+02  0.88371022721E+02  0.79860136501E+02 0.  0.
       11    1    3    3    0    0  0.22815755498E+02 -0.30638201380E+01  0.55022721816E+02  0.59644325873E+02  0.00000000000E+00 0. -1.
      -12    1    3    3    0    0 -0.22815755498E+02  0.30638201380E+01 -0.17183638121E+02  0.28726696849E+02  0.00000000000E+00 0.  1.
</event>
<event>
 5   0  0.2392100E+01  0.7992737E+02  0.7957747E-01  0.1327760E+00
        1   -1    0    0  501    0  0.00000000000E+00  0.00000000000E+00  0.11824938564E+02  0.11824938564E+02  0.00000000000E+00 0. -1.
       -2   -1    0    0    0  501  0.00000000000E+00  0.00000000000E+00 -0.13506167705E+03  0.13506167705E+03  0.00000000000E+00 0.  1.
      -24    2    1    2    0    0  0.00000000000E+00  0.00000000000E+00 -0.12323673848E+03  0.14688661561E+03  0.79927367864E+02 0.  0.
       11    1    3    3    0    0  0.37739920878E+02 -0.10056672514E+02 -0.77175097919E+02  0.86495283274E+02  0.00000000000E+00 0. -1.
      -12    1    3    3    0    0 -0.37739920878E+02  0.10056672514E+02 -0.46061640562E+02  0.60391332335E+02  0.00000000000E+00 0.  1.
</event>
<event>
 5   0  0.2392100E+01  0.8148208E+02  0.7957747E-01  0.1323629E+00
        1   -1    0    0  501    0  0.00000000000E+00  0.00000000000E+00  0.33245248952E+02  0.33245248952E+02  0.00000000000E+00 0. -1.
       -2   -1    0    0    0  501  0.00000000000E+00  0.00000000000E+00 -0.49926900300E+02  0.49926900300E+02  0.00000000000E+00 0.  1.
      -24    2    1    2    0    0  0.00000000000E+00  0.00000000000E+00 -0.16681651348E+02  0.83172149252E+02  0.81482077290E+02 0.  0.
       11    1    3    3    0    0 -0.30438265911E+02 -0.19157946472E+02  0.11195574290E+02  0.37667702722E+02  0.00000000000E+00 0. -1.
      -12    1    3    3    0    0  0.30438265911E+02  0.19157946472E+02 -0.27877225638E+02  0.45504446530E+02  0.00000000000E+00 0.  1.
</event>
<event>
 5   0  0.2392100E+01  0.7622112E+02  0.7957747E-01  0.1338053E+00
       -2   -1    0    0    0  501  0.00000000000E+00  0.00000000000E+00  0.87982450502E+02  0.87982450502E+02  0.00000000000E+00 0.  1.
        1   -1    0    0  501    0  0.00000000000E+00  0.00000000000E+00 -0.16508004857E+02  0.16508004857E+02  0.00000000000E+00 0. -1.
      -24    2    1    2    0    0  0.00000000000E+00  0.00000000000E+00  0.71474445645E+02  0.10449045536E+03  0.76221118339E+02 0.  0.
       11    1    3    3    0    0 -0.33847537450E+02 -0.15568882827E+02  0.46735864833E+02  0.59768611876E+02  0.00000000000E+00 0. -1.
      -12    1    3    3    0    0  0.33847537450E+02  0.15568882827E+02  0.24738580811E+02  0.44721843483E+02  0.00000000000E+00 0.  1.
</event>
<event>
 5   0  0.2392100E+01  0.8065648E+02  0.7957747E-01  0.1325810E+00
        1   -1    0    0  501    0  0.00000000000E+00  0.00000000000E+00  0.21099164756E+02  0.21099164756E+02  0.00000000000E+00 0. -1.
       -2   -1    0    0    0  501  0.00000000000E+00  0.00000000000E+00 -0.77082053041E+02  0.77082053041E+02  0.00000000000E+00 0.  1.
      -24    2    1    2    0    0  0.00000000000E+00  0.00000000000E+00 -0.55982888285E+02  0.98181217796E+02  0.80656479884E+02 0.  0.
       11    1    3    3    0    0  0.36152625137E+02  0.78905809863E+01 -0.84734769244E+01  0.37961472360E+02  0.00000000000E+00 0. -1.
      -12    1    3    3    0    0 -0.36152625137E+02 -0.78905809863E+01 -0.47509411361E+02  0.60219745436E+02  0.00000000000E+00 0.  1.
</event>
<event>
 5   0  0.2392100E+01  0.8059722E+02  0.7957747E-01  0.1325967E+00
       -4   -1    0    0    0  501  0.00000000000E+00  0.00000000000E+00  0.21236596038E+02  0.21236596038E+02  0.00000000000E+00 0.  1.
        3   -1    0    0  501    0  0.00000000000E+00  0.00000000000E+00 -0.76470734229E+02  0.76470734229E+02  0.00000000000E+00 0. -1.
      -24    2    1    2    0    0  0.00000000000E+00  0.00000000000E+00 -0.55234138191E+02  0.97707330266E+02  0.80597223067E+02 0.  0.
       11    1    3    3    0    0  0.14938558290E+02  0.36288324898E+02 -0.16507884384E+02  0.42573622051E+02  0.00000000000E+00 0. -1.
      -12    1    3    3    0    0 -0.14938558290E+02 -0.36288324898E+02 -0.38726253807E+02  0.55133708216E+02  0.00000000000E+00 0.  1.
</event>
<event>
 5   0  0.2392100E+01  0.8092006E+02  0.7957747E-01  0.1325110E+00
       -4   -1    0    0    0  501  0.00000000000E+00  0.00000000000E+00  0.17523075754E+02  0.17523075754E+02  0.00000000000E+00 0.  1.
        3   -1    0    0  501    0  0.00000000000E+00  0.00000000000E+00 -0.93420476974E+02  0.93420476974E+02  0.00000000000E+00 0. -1.
      -24    2    1    2    0    0  0.00000000000E+00  0.00000000000E+00 -0.75897401220E+02  0.11094355273E+03  0.80920061667E+02 0.  0.
       11    1    3    3    0    0 -0.26746172841E+02  0.25966951158E+02 -0.16385029587E+02  0.40719890823E+02  0.00000000000E+00 0. -1.
      -12    1    3    3    0    0  0.26746172841E+02 -0.25966951158E+02 -0.59512371632E+02  0.70223661905E+02  0.00000000000E+00 0.  1.
</event>
<event>
 5   0  0.2392100E+01  0.8114131E+02  0.7957747E-01  0.1324525E+00
       -2   -1    0    0    0  501  0.00000000000E+00  0.00000000000E+00  0.12590204686E+02  0.12590204686E+02  0.00000000000E+00 0.  1.
        1   -1    0    0  501    0  0.00000000000E+00  0.00000000000E+00 -0.13073481725E+03  0.13073481725E+03  0.00000000000E+00 0. -1.
      -24    2    1    2    0    0  0.00000000000E+00  0.00000000000E+00 -0.11814461257E+03  0.14332502194E+03  0.81141311520E+02 0.  0.
       11    1    3    3    0    0 -0.19163505875E+02 -0.11459294527E+02 -0.11890543547E+03  0.12098370953E+03  0.00000000000E+00 0. -1.
      -12    1    3    3    0    0  0.19163505875E+02  0.11459294527E+02  0.76082290244E+00  0.22341312405E+02  0.00000000000E+00 0.  1.
</event>
<event>
 5   0  0.2392100E+01  0.8014573E+02  0.7957747E-01  0.1327174E+00
        1   -1    0    0  501    0  0.00000000000E+00  0.00000000000E+00  0.48761510897E+02  0.48761510897E+02  0.00000000000E+00 0. -1.
       -2   -1    0    0    0  501  0.00000000000E+00  0.00000000000E+00 -0.32932415423E+02  0.32932415423E+02  0.00000000000E+00 0.  1.
      -24    2    1    2    0    0  0.00000000000E+00  0.00000000000E+00  0.15829095474E+02  0.81693926321E+02  0.80145725614E+02 0.  0.
       11    1    3    3    0    0  0.20446679444E+02 -0.23419707453E+01  0.42963100611E+02  0.47638005220E+02  0.00000000000E+00 0. -1.
      -12    1    3    3    0    0 -0.20446679444E+02  0.23419707453E+01 -0.27134005137E+02  0.34055921101E+02  0.00000000000E+00 0.  1.
</event>
<event>
 5   0  0.2392100E+01  0.7949660E+02  0.7957747E-01  0.1328924E+00
        1   -1    0    0  501    0  0.00000000000E+00  0.00000000000E+00  0.14456578751E+02  0.14456578751E+02  0.00000000000E+00 0. -1.
       -2   -1    0    0    0  501  0.00000000000E+00  0.00000000000E+00 -0.10928777510E+03  0.10928777510E+03  0.00000000000E+00 0.  1.
      -24    2    1    2    0    0  0.00000000000E+00  0.00000000000E+00 -0.94831196348E+02  0.12374435385E+03  0.79496599355E+02 0.  0.
       11    1    3    3    0    0 -0.22375116986E+02  0.26411104357E+02 -0.17002697000E+02  0.38565321194E+02  0.00000000000E+00 0. -1.
      -12    1    3    3    0    0  0.22375116986E+02 -0.26411104357E+02 -0.77828499348E+02  0.85179032656E+02  0.00000000000E+00 0.  1.
</event>
<event>
 5   0  0.2392100E+01  0.8144915E+02  0.7957747E-01  0.1323715E+00
       -2   -1    0    0    0  501  0.00000000000E+00  0.00000000000E+00  0.57153782860E+01  0.57153782860E+01  0.00000000000E+00 0.  1.
        1   -1    0    0  501    0  0.00000000000E+00  0.00000000000E+00 -0.29018041161E+03  0.29018041161E+03  0.00000000000E+00 0. -1.
      -24    2    1    2    0    0  0.00000000000E+00  0.00000000000E+00 -0.28446503332E+03  0.29589578989E+03  0.81449145447E+02 0.  0.
       11    1    3    3    0    0  0.37300741163E+02  0.95306724701E+01 -0.19047092408E+03  0.19432280342E+03  0.00000000000E+00 0. -1.
      -12    1    3    3    0    0 -0.37300741163E+02 -0.95306724701E+01 -0.93994109236E+02  0.10157298647E+03  0.00000000000E+00 0.  1.
</event>
<event>
 5   0  0.2392100E+01  0.7836482E+02  0.7957747E-01  0.1332021E+00
        1   -1    0    0  501    0  0.00000000000E+00  0.00000000000E+00  0.38358825946E+01  0.38358825946E+01  0.00000000000E+00 0. -1.
       -2   -1    0    0    0  501  0.00000000000E+00  0.00000000000E+00 -0.40023674345E+03  0.40023674345E+03  0.00000000000E+00 0.  1.
      -24    2    1    2    0    0  0.00000000000E+00  0.00000000000E+00 -0.39640086085E+03  0.40407262604E+03  0.78364817562E+02 0.  0.
       11    1    3    3    0    0 -0.29366737263E+02 -0.12900933300E+02 -0.82163960482E+02  0.88202923645E+02  0.00000000000E+00 0. -1.
      -12    1    3    3    0    0  0.29366737263E+02  0.12900933300E+02 -0.31423690037E+03  0.31586970240E+03  0.00000000000E+00 0.  1.
</event>
<event>
 5   0  0.2392100E+01  0.8004386E+02  0.7957747E-01  0.1327447E+00
        1   -1    0    0  501    0  0.00000000000E+00  0.00000000000E+00  0.90128103567E+01  0.90128103567E+01  0.00000000000E+00 0. -1.
       -2   -1    0    0    0  501  0.00000000000E+00  0.00000000000E+00 -0.17771980483E+03  0.17771980483E+03  0.00000000000E+00 0.  1.
      -24    2    1    2    0    0  0.00000000000E+00  0.00000000000E+00 -0.16870699448E+03  0.18673261519E+03  0.80043860416E+02 0.  0.
       11    1    3    3    0    0  0.26678950932E+02  0.25587742444E+02 -0.48571677286E+02  0.61038568304E+02  0.00000000000E+00 0. -1.
      -12    1    3    3    0    0 -0.26678950932E+02 -0.25587742444E+02 -0.12013531719E+03  0.12569404689E+03  0.00000000000E+00 0.  1.
</event>
<event>
 5   0  0.2392100E+01  0.8125461E+02  0.7957747E-01  0.1324227E+00
        1   -1    0    0  501    0  0.00000000000E+00  0.00000000000E+00  0.66150245052E+02  0.66150245052E+02  0.00000000000E+00 0. -1.
       -2   -1    0    0    0  501  0.00000000000E+00  0.00000000000E+00 -0.24951957048E+02  0.24951957048E+02  0.00000000000E+00 0.  1.
      -24    2    1    2    0    0  0.00000000000E+00  0.00000000000E+00  0.41198288004E+02  0.91102202100E+02  0.81254613980E+02 0.  0.
       11    1    3    3    0    0 -0.16189710449E+02 -0.12725365507E+02  0.59865542325E+02  0.63308173324E+02  0.00000000000E+00 0. -1.
      -12    1    3    3    0    0  0.16189710449E+02  0.12725365507E+02 -0.18667254322E+02  0.27794028776E+02  0.00000000000E+00 0.  1.
</event>
<event>
 5   0  0.2392100E+01  0.8176959E+02  0.7957747E-01  0.1322876E+00
        1   -1    0    0  501    0  0.00000000000E+00  0.00000000000E+00  0.24737540231E+02  0.24737540231E+02  0.00000000000E+00 0. -1.
       -2   -1    0    0    0  501  0.00000000000E+00  0.00000000000E+00 -0.67572058296E+02  0.67572058296E+02  0.00000000000E+00 0.  1.
      -24    2    1    2    0    0  0.00000000000E+00  0.00000000000E+00 -0.42834518065E+02  0.92309598528E+02  0.81769591185E+02 0.  0.
       11    1    3    3    0    0 -0.10021666951E+02  0.26297479009E+02  0.12063211139E+02  0.30618822212E+02  0.00000000000E+00 0. -1.
      -12    1    3    3    0    0  0.10021666951E+02 -0.26297479009E+02 -0.54897729203E+02  0.61690776315E+02  0.00000000000E+00 0.  1.
</event>
<event>
 5   0  0.2392100E+01  0.8010315E+02  0.7957747E-01  0.1327288E+00
       -4   -1    0    0    0  501  0.00000000000E+00  0.00000000000E+00  0.30011689024E+03  0.30011689024E+03  0.00000000000E+00 0.  1.
        3   -1    0    0  501    0  0.00000000000E+00  0.00000000000E+00 -0.53450125099E+01  0.53450125099E+01  0.00000000000E+00 0. -1.
      -24    2    1    2    0    0  0.00000000000E+00  0.00000000000E+00  0.29477187773E+03  0.30546190275E+03  0.80103146824E+02 0.  0.
       11    1    3    3    0    0 -0.40671042162E+01 -0.26326102444E+02  0.33333819819E+02  0.42670230259E+02  0.00000000000E+00 0. -1.
      -12    1    3    3    0    0  0.40671042162E+01  0.26326102444E+02  0.26143805791E+03  0.26279167249E+03  0.00000000000E+00 0.  1.
</event>
<event>
 5   0  0.2392100E+01  0.8127629E+02  0.7957747E-01  0.1324170E+00
       -4   -1    0    0    0  501  0.00000000000E+00  0.00000000000E+00  0.16616801718E+02  0.16616801718E+02  0.00000000000E+00 0.  1.
        3   -1    0    0  501    0  0.00000000000E+00  0.00000000000E+00 -0.99384882617E+02  0.99384882617E+02  0.00000000000E+00 0. -1.
      -24    2    1    2    0    0  0.00000000000E+00  0.00000000000E+00 -0.82768080899E+02  0.11600168434E+03  0.81276291456E+02 0.  0.
       11    1    3    3    0    0  0.52102752291E+01 -0.14802107671E+02 -0.94886156520E+02  0.96175007453E+02  0.00000000000E+00 0. -1.
      -12    1    3    3    0    0 -0.52102752291E+01  0.14802107671E+02  0.12118075621E+02  0.19826676883E+02  0.00000000000E+00 0.  1.
</event>
<event>
 5   0  0.2392100E+01  0.7999795E+02  0.7957747E-01  0.1327570E+00
       -2   -1    0    0    0  501  0.00000000000E+00  0.00000000000E+00  0.54992060255E+02  0.54992060255E+02  0.00000000000E+00 0.  1.
        1   -1    0    0  501    0  0.00000000000E+00  0.00000000000E+00 -0.29093620262E+02  0.29093620262E+02  0.00000000000E+00 0. -1.
      -24    2    1    2    0    0  0.00000000000E+00  0.00000000000E+00  0.25898439993E+02  0.84085680516E+02  0.79997952935E+02 0.  0.
       11    1    3    3    0    0 -0.39907467505E+02 -0.21747197426E+01  0.11260007288E+02  0.41522561731E+02  0.00000000000E+00 0. -1.
      -12    1    3    3    0    0  0.39907467505E+02  0.21747197426E+01  0.14638432705E+02  0.42563118785E+02  0.00000000000E+00 0.  1.
</event>
<event>
 5   0  0.2392100E+01  0.7539612E+02  0.7957747E-01  0.1340435E+00
        3   -1    0    0  501    0  0.00000000000E+00  0.00000000000E+00  0.18037638893E+02  0.18037638893E+02  0.00000000000E+00 0. -1.
       -4   -1    0    0    0  501  0.00000000000E+00  0.00000000000E+00 -0.78787670809E+02  0.78787670809E+02  0.00000000000E+00 0.  1.
      -24    2    1    2    0    0  0.00000000000E+00  0.00000000000E+00 -0.60750031916E+02  0.96825309702E+02  0.75396115424E+02 0.  0.
       11    1    3    3    0    0 -0.26633510080E+02 -0.53199019748E+01  0.31994146326E+01  0.27347421637E+02  0.00000000000E+00 0. -1.
      -12    1    3    3    0    0  0.26633510080E+02  0.53199019748E+01 -0.63949446548E+02  0.69477888065E+02  0.00000000000E+00 0.  1.
</event>
<event>
 5   0  0.2392100E+01  0.8088201E+02  0.7957747E-01  0.1325211E+00
       -4   -1    0    0    0  501  0.00000000000E+00  0.00000000000E+00  0.73330838531E+02  0.73330838531E+02  0.00000000000E+00 0.  1.
        3   -1    0    0  501    0  0.00000000000E+00  0.00000000000E+00 -0.22302688912E+02  0.22302688912E+02  0.00000000000E+00 0. -1.
      -24    2    1    2    0    0  0.00000000000E+00  0.00000000000E+00  0.51028149619E+02  0.95633527444E+02  0.80882009853E+02 0.  0.
       11    1    3    3    0    0 -0.14499936975E+02 -0.17277181419E+02 -0.14174668016E+02  0.26639639326E+02  0.00000000000E+00 0. -1.
      -12    1    3    3    0    0  0.14499936975E+02  0.17277181419E+02  0.65202817635E+02  0.68993888118E+02  0.00000000000E+00 0.  1.
</event>
<event>
 5   0  0.2392100E+01  0.8133897E+02  0.7957747E-01  0.1324005E+00
       -4   -1    0    0    0  501  0.00000000000E+00  0.00000000000E+00  0.23236508344E+03  0.23236508344E+03  0.00000000000E+00 0.  1.
        3   -1    0    0  501    0  0.00000000000E+00  0.00000000000E+00 -0.71181391277E+01  0.71181391277E+01  0.00000000000E+00 0. -1.
      -24    2    1    2    0    0  0.00000000000E+00  0.00000000000E+00  0.22524694431E+03  0.23948322257E+03  0.81338969562E+02 0.  0.
       11    1    3    3    0    0 -0.27902914631E+02 -0.29546765417E+02  0.11720650756E+03  0.12405220435E+03  0.00000000000E+00 0. -1.
      -12    1    3    3    0    0  0.27902914631E+02  0.29546765417E+02  0.10804043676E+03  0.11543101822E+03  0.00000000000E+00 0.  1.
</event>
<event>
 5   0  0.2392100E+01  0.8254626E+02  0.7957747E-01  0.1320861E+00
       -2   -1    0    0    0  501  0.00000000000E+00  0.00000000000E+00  0.12127224257E+02  0.12127224257E+02  0.00000000000E+00 0.  1.
        1   -1    0    0  501    0  0.00000000000E+00  0.00000000000E+00 -0.14046672010E+03  0.14046672010E+03  0.00000000000E+00 0. -1.
      -24    2    1    2    0    0  0.00000000000E+00  0.00000000000E+00 -0.12833949584E+03  0.15259394436E+03  0.82546263763E+02 0.  0.
       11    1    3    3    0    0 -0.32453477007E+02 -0.23319761776E+02 -0.45098641021E+02  0.60257172860E+02  0.00000000000E+00 0. -1.
      -12    1    3    3    0    0  0.32453477007E+02  0.23319761776E+02 -0.83240854823E+02  0.92336771498E+02  0.00000000000E+00 0.  1.
</event>
<event>
 5   0  0.2392100E+01  0.7991827E+02  0.7957747E-01  0.1327785E+00
       -2   -1    0    0    0  501  0.00000000000E+00  0.00000000000E+00  0.44286620657E+02  0.44286620657E+02  0.00000000000E+00 0.  1.
        1   -1    0    0  501    0  0.00000000000E+00  0.00000000000E+00 -0.36054507002E+02  0.36054507002E+02  0.00000000000E+00 0. -1.
      -24    2    1    2    0    0  0.00000000000E+00  0.00000000000E+00  0.82321136544E+01  0.80341127659E+02  0.79918265111E+02 0.  0.
       11    1    3    3    0    0  0.35579425594E+01 -0.16734891859E+02 -0.32186185756E+02  0.36450872613E+02  0.00000000000E+00 0. -1.
      -12    1    3    3    0    0 -0.35579425594E+01  0.16734891859E+02  0.40418299410E+02  0.43890255046E+02  0.00000000000E+00 0.  1.
</event>
<event>
 5   0  0.2392100E+01  0.8158110E+02  0.7957747E-01  0.1323369E+00
       -4   -1    0    0    0  501  0.00000000000E+00  0.00000000000E+00  0.60877815642E+02  0.60877815642E+02  0.00000000000E+00 0.  1.
        3   -1    0    0  501    0  0.00000000000E+00  0.00000000000E+00 -0.27331284718E+02  0.27331284718E+02  0.00000000000E+00 0. -1.
      -24    2    1    2    0    0  0.00000000000E+00  0.00000000000E+00  0.33546530924E+02  0.88209100360E+02  0.81581098604E+02 0.  0.
       11    1    3    3    0    0  0.15738584910E+02  0.23227691090E+02 -0.15240336464E+02  0.31929555961E+02  0.00000000000E+00 0. -1.
      -12    1    3    3    0    0 -0.15738584910E+02 -0.23227691090E+02  0.48786867387E+02  0.56279544399E+02  0.00000000000E+00 0.  1.
</event>
<event>
 5   0  0.2392100E+01  0.8069938E+02  0.7957747E-01  0.1325696E+00
        1   -1    0    0  501    0  0.00000000000E+00  0.00000000000E+00  0.15681596069E+03  0.15681596069E+03  0.00000000000E+00 0. -1.
       -2   -1    0    0    0  501  0.00000000000E+00  0.00000000000E+00 -0.10382217508E+02  0.10382217508E+02  0.00000000000E+00 0.  1.
      -24    2    1    2    0    0  0.00000000000E+00  0.00000000000E+00  0.14643374318E+03  0.16719817820E+03  0.80699378255E+02 0.  0.
       11    1    3    3    0    0 -0.34319298063E+02 -0.20960351705E+02  0.80071847405E+02  0.89602741643E+02  0.00000000000E+00 0. -1.
      -12    1    3    3    0    0  0.34319298063E+02  0.20960351705E+02  0.66361895780E+02  0.77595436558E+02  0.00000000000E+00 0.  1.
</event>
<event>
 5   0  0.2392100E+01  0.7787692E+02  0.7957747E-01  0.1333374E+00
       -2   -1    0    0    0  501  0.00000000000E+00  0.00000000000E+00  0.11716145270E+03  0.11716145270E+03  0.00000000000E+00 0.  1.
        1   -1    0    0  501    0  0.00000000000E+00  0.00000000000E+00 -0.12941147704E+02  0.12941147704E+02  0.00000000000E+00 0. -1.
      -24    2    1    2    0    0  0.00000000000E+00  0.00000000000E+00  0.10422030500E+03  0.13010260040E+03  0.77876919933E+02 0.  0.
       11    1    3    3    0    0  0.38276293384E+02 -0.20367794870E+00  0.40169316717E+02  0.55485945296E+02  0.00000000000E+00 0. -1.
      -12    1    3    3    0    0 -0.38276293384E+02  0.20367794870E+00  0.64050988280E+02  0.74616655108E+02  0.00000000000E+00 0.  1.
</event>
<event>
 5   0  0.2392100E+01  0.8294354E+02  0.7957747E-01  0.1319840E+00
       -2   -1    0    0    0  501  0.00000000000E+00  0.00000000000E+00  0.45846199330E+03  0.45846199330E+03  0.00000000000E+00 0.  1.
        1   -1    0    0  501    0  0.00000000000E+00  0.00000000000E+00 -0.37514730049E+01  0.37514730049E+01  0.00000000000E+00 0. -1.
      -24    2    1    2    0    0  0.00000000000E+00  0.00000000000E+00  0.45471052030E+03  0.46221346631E+03  0.82943542043E+02 0.  0.
       11    1    3    3    0    0  0.28823424608E+02 -0.41507362630E+01  0.62807979664E+02  0.69230489867E+02  0.00000000000E+00 0. -1.
      -12    1    3    3    0    0 -0.28823424608E+02  0.41507362630E+01  0.39190254063E+03  0.39298297644E+03  0.00000000000E+00 0.  1.
</event>
<event>
 5   0  0.2392100E+01  0.8056899E+02  0.7957747E-01  0.1326042E+00
       -2   -1    0    0    0  501  0.00000000000E+00  0.00000000000E+00  0.53039174111E+02  0.53039174111E+02  0.00000000000E+00 0.  1.
        1   -1    0    0  501    0  0.00000000000E+00  0.00000000000E+00 -0.30597017579E+02  0.30597017579E+02  0.00000000000E+00 0. -1.
      -24    2    1    2    0    0  0.00000000000E+00  0.00000000000E+00  0.22442156532E+02  0.83636191690E+02  0.80568990130E+02 0.  0.
       11    1    3    3    0    0  0.96021175909E+01  0.10605963267E+02 -0.27870926052E+02  0.31328511583E+02  0.00000000000E+00 0. -1.
      -12    1    3    3    0    0 -0.96021175909E+01 -0.10605963267E+02  0.50313082584E+02  0.52307680107E+02  0.00000000000E+00 0.  1.
</event>
<event>
 5   0  0.2392100E+01  0.7972434E+02  0.7957747E-01  0.1328308E+00
        3   -1    0    0  501    0  0.00000000000E+00  0.00000000000E+00  0.81228549500E+02  0.81228549500E+02  0.00000000000E+00 0. -1.
       -4   -1    0    0    0  501  0.00000000000E+00  0.00000000000E+00 -0.19561994366E+02  0.19561994366E+02  0.00000000000E+00 0.  1.
      -24    2    1    2    0    0  0.00000000000E+00  0.00000000000E+00  0.61666555134E+02  0.10079054387E+03  0.79724335751E+02 0.  0.
       11    1    3    3    0    0 -0.16225081066E+02 -0.33697626906E+02  0.48269184386E+02  0.61063061469E+02  0.00000000000E+00 0. -1.
      -12    1    3    3    0    0  0.16225081066E+02  0.33697626906E+02  0.13397370748E+02  0.39727482398E+02  0.00000000000E+00 0.  1.
</event>
<event>
 5   0  0.2392100E+01  0.8000304E+02  0.7957747E-01  0.1327557E+00
        1   -1    0    0  501    0  0.00000000000E+00  0.00000000000E+00  0.25980972583E+03  0.25980972583E+03  0.00000000000E+00 0. -1.
       -2   -1    0    0    0  501  0.00000000000E+00  0.00000000000E+00 -0.61588206004E+01  0.61588206004E+01  0.00000000000E+00 0.  1.
      -24    2    1    2    0    0  0.00000000000E+00  0.00000000000E+00  0.25365090523E+03  0.26596854643E+03  0.80003037233E+02 0.  0.
       11    1    3    3    0    0  0.39233052938E+02 -0.76915783166E+01  0.13119644531E+03  0.13715283476E+03  0.00000000000E+00 0. -1.
      -12    1    3    3    0    0 -0.39233052938E+02  0.76915783166E+01  0.12245445992E+03  0.12881571167E+03  0.00000000000E+00 0.  1.
</event>
<event>
 5   0  0.2392100E+01  0.8000037E+02  0.7957747E-01  0.1327564E+00
        3   -1    0    0  501    0  0.00000000000E+00  0.00000000000E+00  0.39305965064E+02  0.39305965064E+02  0.00000000000E+00 0. -1.
       -4   -1    0    0    0  501  0.00000000000E+00  0.00000000000E+00 -0.40706666298E+02  0.40706666298E+02  0.00000000000E+00 0.  1.
      -24    2    1    2    0    0  0.00000000000E+00  0.00000000000E+00 -0.14007012345E+01  0.80012631362E+02  0.80000370084E+02 0.  0.
       11    1    3    3    0    0 -0.12686305519E+02  0.36420360585E+02  0.99139942828E+01  0.39820500945E+02  0.00000000000E+00 0. -1.
      -12    1    3    3    0    0  0.12686305519E+02 -0.36420360585E+02 -0.11314695517E+02  0.40192130418E+02  0.00000000000E+00 0.  1.
</event>
<event>
 5   0  0.2392100E+01  0.8010443E+02  0.7957747E-01  0.1327284E+00
       -2   -1    0    0    0  501  0.00000000000E+00  0.00000000000E+00  0.31162054535E+03  0.31162054535E+03  0.00000000000E+00 0.  1.
        1   -1    0    0  501    0  0.00000000000E+00  0.00000000000E+00 -0.51478629254E+01  0.51478629254E+01  0.00000000000E+00 0. -1.
      -24    2    1    2    0    0  0.00000000000E+00  0.00000000000E+00  0.30647268243E+03  0.31676840828E+03  0.80104428148E+02 0.  0.
       11    1    3    3    0    0 -0.18660222858E+02  0.13908745617E+01  0.13199832232E+02  0.22899214400E+02  0.00000000000E+00 0. -1.
      -12    1    3    3    0    0  0.18660222858E+02 -0.13908745617E+01  0.29327285019E+03  0.29386919388E+03  0.00000000000E+00 0.  1.
</event>
<event>
 5   0  0.2392100E+01  0.8149284E+02  0.7957747E-01  0.1323601E+00
       -2   -1    0    0    0  501  0.00000000000E+00  0.00000000000E+00  0.30301267141E+02  0.30301267141E+02  0.00000000000E+00 0.  1.
        1   -1    0    0  501    0  0.00000000000E+00  0.00000000000E+00 -0.54792124727E+02  0.54792124727E+02  0.00000000000E+00 0. -1.
      -24    2    1    2    0    0  0.00000000000E+00  0.00000000000E+00 -0.24490857587E+02  0.85093391868E+02  0.81492841614E+02 0.  0.
       11    1    3    3    0    0  0.42301221801E+00  0.20636889664E+02 -0.48928950226E+02  0.53104635622E+02  0.00000000000E+00 0. -1.
      -12    1    3    3    0    0 -0.42301221801E+00 -0.20636889664E+02  0.24438092639E+02  0.31988756246E+02  0.00000000000E+00 0.  1.
</event>
<event>
 5   0  0.2392100E+01  0.8506448E+02  0.7957747E-01  0.1314494E+00
       -4   -1    0    0    0  501  0.00000000000E+00  0.00000000000E+00  0.19561891323E+03  0.19561891323E+03  0.00000000000E+00 0.  1.
        3   -1    0    0  501    0  0.00000000000E+00  0.00000000000E+00 -0.92475281324E+01  0.92475281324E+01  0.00000000000E+00 0. -1.
      -24    2    1    2    0    0  0.00000000000E+00  0.00000000000E+00  0.18637138510E+03  0.20486644136E+03  0.85064479152E+02 0.  0.
       11    1    3    3    0    0 -0.23387944207E+02  0.29360973909E+02  0.14134872812E+03  0.14624816465E+03  0.00000000000E+00 0. -1.
      -12    1    3    3    0    0  0.23387944207E+02 -0.29360973909E+02  0.45022656979E+02  0.58618276711E+02  0.00000000000E+00 0.  1.
</event>
<event>
 5   0  0.2392100E+01  0.7982190E+02  0.7957747E-01  0.1328044E+00
        1   -1    0    0  501    0  0.00000000000E+00  0.00000000000E+00  0.10576130646E+03  0.10576130646E+03  0.00000000000E+00 0. -1.
       -2   -1    0    0    0  501  0.00000000000E+00  0.00000000000E+00 -0.15061122550E+02  0.15061122550E+02  0.00000000000E+00 0.  1.
      -24    2    1    2    0    0  0.00000000000E+00  0.00000000000E+00  0.90700183915E+02  0.12082242901E+03  0.79821901698E+02 0.  0.
       11    1    3    3    0    0 -0.21078346711E+02 -0.27889184272E+02  0.74496433598E+02  0.82291080430E+02  0.00000000000E+00 0. -1.
      -12    1    3    3    0    0  0.21078346711E+02  0.27889184272E+02  0.16203750317E+02  0.38531348585E+02  0.00000000000E+00 0.  1.
</event>
<event>
 4   0  0.2392100E+01  0.1356518E+03  0.7957747E-01  0.1222953E+00
       -2   -1    0    0    0  501  0.00000000000E+00  0.00000000000E+00  0.75837351192E+02  0.75837351192E+02  0.00000000000E+00 0.  1.
        1   -1    0    0  501    0  0.00000000000E+00  0.00000000000E+00 -0.60660811344E+02  0.60660811344E+02  0.00000000000E+00 0. -1.
       11    1    1    2    0    0 -0.13236979979E+02  0.59172839254E+02 -0.22993990609E+02  0.64848794503E+02  0.00000000000E+00 0. -1.
      -12    1    1    2    0    0  0.13236979979E+02 -0.59172839254E+02  0.38170530456E+02  0.71649368034E+02  0.00000000000E+00 0.  1.
</event>
<event>
 5   0  0.2392100E+01  0.7780525E+02  0.7957747E-01  0.1333574E+00
        1   -1    0    0  501    0  0.00000000000E+00  0.00000000000E+00  0.19327884561E+02  0.19327884561E+02  0.00000000000E+00 0. -1.
       -2   -1    0    0    0  501  0.00000000000E+00  0.00000000000E+00 -0.78302113076E+02  0.78302113076E+02  0.00000000000E+00 0.  1.
      -24    2    1    2    0    0  0.00000000000E+00  0.00000000000E+00 -0.58974228515E+02  0.97629997637E+02  0.77805249242E+02 0.  0.
       11    1    3    3    0    0 -0.12453436220E+02  0.27061085339E+02  0.19085588758E+01  0.29850176053E+02  0.00000000000E+00 0. -1.
      -12    1    3    3    0    0  0.12453436220E+02 -0.27061085339E+02 -0.60882787391E+02  0.67779821584E+02  0.00000000000E+00 0.  1.
</event>
<event>
 5   0  0.2392100E+01  0.7489275E+02  0.7957747E-01  0.1341905E+00
       -2   -1    0    0    0  501  0.00000000000E+00  0.00000000000E+00  0.81142817348E+01  0.81142817348E+01  0.00000000000E+00 0.  1.
        1   -1    0    0  501    0  0.00000000000E+00  0.00000000000E+00 -0.17281024785E+03  0.17281024785E+03  0.00000000000E+00 0. -1.
      -24    2    1    2    0    0  0.00000000000E+00  0.00000000000E+00 -0.16469596611E+03  0.18092452958E+03  0.74892750989E+02 0.  0.
       11    1    3    3    0    0  0.30549541000E+02  0.20887464248E+02 -0.96156118085E+02  0.10303183810E+03  0.00000000000E+00 0. -1.
      -12    1    3    3    0    0 -0.30549541000E+02 -0.20887464248E+02 -0.68539848027E+02  0.77892691478E+02  0.00000000000E+00 0.  1.
</event>
<event>
 5   0  0.2392100E+01  0.8094378E+02  0.7957747E-01  0.1325047E+00
       -2   -1    0    0    0  501  0.00000000000E+00  0.00000000000E+00  0.30899700662E+02  0.30899700662E+02  0.00000000000E+00 0.  1.
        1   -1    0    0  501    0  0.00000000000E+00  0.00000000000E+00 -0.53009382318E+02  0.53009382318E+02  0.00000000000E+00 0. -1.
      -24    2    1    2    0    0  0.00000000000E+00  0.00000000000E+00 -0.22109681656E+02  0.83909082979E+02  0.80943784094E+02 0.  0.
       11    1    3    3    0    0  0.18010243659E+02 -0.31755726320E+02  0.70545067658E+01  0.37182806463E+02  0.00000000000E+00 0. -1.
      -12    1    3    3    0    0 -0.18010243659E+02  0.31755726320E+02 -0.29164188422E+02  0.46726276516E+02  0.00000000000E+00 0.  1.
</event>
<event>
 5   0  0.2392100E+01  0.7905881E+02  0.7957747E-01  0.1330115E+00
       -2   -1    0    0    0  501  0.00000000000E+00  0.00000000000E+00  0.49049475351E+01  0.49049475351E+01  0.00000000000E+00 0.  1.
        1   -1    0    0  501    0  0.00000000000E+00  0.00000000000E+00 -0.31857094566E+03  0.31857094566E+03  0.00000000000E+00 0. -1.
      -24    2    1    2    0    0  0.00000000000E+00  0.00000000000E+00 -0.31366599813E+03  0.32347589320E+03  0.79058807850E+02 0.  0.
       11    1    3    3    0    0  0.22933522504E+01  0.36247288004E+02 -0.92992666332E+02  0.99833668388E+02  0.00000000000E+00 0. -1.
      -12    1    3    3    0    0 -0.22933522504E+01 -0.36247288004E+02 -0.22067333179E+03  0.22364222481E+03  0.00000000000E+00 0.  1.
</event>
<event>
 5   0  0.2392100E+01  0.8015963E+02  0.7957747E-01  0.1327136E+00
        1   -1    0    0  501    0  0.00000000000E+00  0.00000000000E+00  0.12427132724E+03  0.12427132724E+03  0.00000000000E+00 0. -1.
       -2   -1    0    0    0  501  0.00000000000E+00  0.00000000000E+00 -0.12926485988E+02  0.12926485988E+02  0.00000000000E+00 0.  1.
      -24    2    1    2    0    0  0.00000000000E+00  0.00000000000E+00  0.11134484125E+03  0.13719781323E+03  0.80159629995E+02 0.  0.
       11    1    3    3    0    0 -0.34985832207E+02  0.19192923233E+02  0.49264971953E+02  0.63398850297E+02  0.00000000000E+00 0. -1.
      -12    1    3    3    0    0  0.34985832207E+02 -0.19192923233E+02  0.62079869301E+02  0.73798962932E+02  0.00000000000E+00 0.  1.
</event>
<event>
 5   0  0.2392100E+01  0.8242555E+02  0.7957747E-01  0.1321172E+00
       -2   -1    0    0    0  501  0.00000000000E+00  0.00000000000E+00  0.70043758371E+02  0.70043758371E+02  0.00000000000E+00 0.  1.
        1   -1    0    0  501    0  0.00000000000E+00  0.00000000000E+00 -0.24249026628E+02  0.24249026628E+02  0.00000000000E+00 0. -1.
      -24    2    1    2    0    0  0.00000000000E+00  0.00000000000E+00  0.45794731743E+02  0.94292784999E+02  0.82425553365E+02 0.  0.
       11    1    3    3    0    0  0.38871462618E+02 -0.11336954739E+02  0.14112127289E+02  0.42879707151E+02  0.00000000000E+00 0. -1.
      -12    1    3    3    0    0 -0.38871462618E+02  0.11336954739E+02  0.31682604454E+02  0.51413077848E+02  0.00000000000E+00 0.  1.
</event>
<event>
 5   0  0.2392100E+01  0.8115953E+02  0.7957747E-01  0.1324477E+00
        1   -1    0    0  501    0  0.00000000000E+00  0.00000000000E+00  0.86645782876E+02  0.86645782876E+02  0.00000000000E+00 0. -1.
       -2   -1    0    0    0  501  0.00000000000E+00  0.00000000000E+00 -0.19005165798E+02  0.19005165798E+02  0.00000000000E+00 0.  1.
      -24    2    1    2    0    0  0.00000000000E+00  0.00000000000E+00  0.67640617079E+02  0.10565094867E+03  0.81159533494E+02 0.  0.
       11    1    3    3    0    0 -0.30799695864E+02 -0.26227487698E+02  0.37980899496E+02  0.55489198073E+02  0.00000000000E+00 0. -1.
      -12    1    3    3    0    0  0.30799695864E+02  0.26227487698E+02  0.29659717583E+02  0.50161750601E+02  0.00000000000E+00 0.  1.
</event>
<event>
 5   0  0.2392100E+01  0.8172751E+02  0.7957747E-01  0.1322986E+00
       -2   -1    0    0    0  501  0.00000000000E+00  0.00000000000E+00  0.53003867737E+02  0.53003867737E+02  0.00000000000E+00 0.  1.
        1   -1    0    0  501    0  0.00000000000E+00  0.00000000000E+00 -0.31504239524E+02  0.31504239524E+02  0.00000000000E+00 0. -1.
      -24    2    1    2    0    0  0.00000000000E+00  0.00000000000E+00  0.21499628213E+02  0.84508107261E+02  0.81727511767E+02 0.  0.
       11    1    3    3    0    0  0.56072568484E+01 -0.10267907501E+02 -0.29735515135E+02  0.31954219035E+02  0.00000000000E+00 0. -1.
      -12    1    3    3    0    0 -0.56072568484E+01  0.10267907501E+02  0.51235143348E+02  0.52553888226E+02  0.00000000000E+00 0.  1.
</event>
<event>
 5   0  0.2392100E+01  0.8064881E+02  0.7957747E-01  0.1325830E+00
       -2   -1    0    0    0  501  0.00000000000E+00  0.00000000000E+00  0.44011770094E+02  0.44011770094E+02  0.00000000000E+00 0.  1.
        1   -1    0    0  501    0  0.00000000000E+00  0.00000000000E+00 -0.36945976303E+02  0.36945976303E+02  0.00000000000E+00 0. -1.
      -24    2    1    2    0    0  0.00000000000E+00  0.00000000000E+00  0.70657937906E+01  0.80957746397E+02  0.80648814374E+02 0.  0.
       11    1    3    3    0    0 -0.39471773686E+02  0.80133154319E+01  0.15699850855E+01  0.40307555064E+02  0.00000000000E+00 0. -1.
      -12    1    3    3    0    0  0.39471773686E+02 -0.80133154319E+01  0.54958087051E+01  0.40650191333E+02  0.00000000000E+00 0.  1.
</event>
<event>
 5   0  0.2392100E+01  0.7967577E+02  0.7957747E-01  0.1328439E+00
       -4   -1    0    0    0  501  0.00000000000E+00  0.00000000000E+00  0.17454285801E+02  0.17454285801E+02  0.00000000000E+00 0.  1.
        3   -1    0    0  501    0  0.00000000000E+00  0.00000000000E+00 -0.90926493759E+02  0.90926493759E+02  0.00000000000E+00 0. -1.
      -24    2    1    2    0    0  0.00000000000E+00  0.00000000000E+00 -0.73472207958E+02  0.10838077956E+03  0.79675768185E+02 0.  0.
       11    1    3    3    0    0  0.26276052516E+02 -0.27340300825E+02 -0.53347815451E+02  0.65451603482E+02  0.00000000000E+00 0. -1.
      -12    1    3    3    0    0 -0.26276052516E+02  0.27340300825E+02 -0.20124392507E+02  0.42929176078E+02  0.00000000000E+00 0.  1.
</event>
<event>
 5   0  0.2392100E+01  0.7784685E+02  0.7957747E-01  0.1333458E+00
        1   -1    0    0  501    0  0.00000000000E+00  0.00000000000E+00  0.10297001957E+03  0.10297001957E+03  0.00000000000E+00 0. -1.
       -2   -1    0    0    0  501  0.00000000000E+00  0.00000000000E+00 -0.14713342581E+02  0.14713342581E+02  0.00000000000E+00 0.  1.
      -24    2    1    2    0    0  0.00000000000E+00  0.00000000000E+00  0.88256676991E+02  0.11768336215E+03  0.77846854107E+02 0.  0.
       11    1    3    3    0    0  0.32453072881E+02 -0.15293090870E+02  0.66952576176E+02  0.75958725795E+02  0.00000000000E+00 0. -1.
      -12    1    3    3    0    0 -0.32453072881E+02  0.15293090870E+02  0.21304100815E+02  0.41724636359E+02  0.00000000000E+00 0.  1.
</event>
<event>
 5   0  0.2392100E+01  0.8007140E+02  0.7957747E-01  0.1327373E+00
        3   -1    0    0  501    0  0.00000000000E+00  0.00000000000E+00  0.40722870173E+02  0.40722870173E+02  0.00000000000E+00 0. -1.
       -4   -1    0    0    0  501  0.00000000000E+00  0.00000000000E+00 -0.39360127178E+02  0.39360127178E+02  0.00000000000E+00 0.  1.
      -24    2    1    2    0    0  0.00000000000E+00  0.00000000000E+00  0.13627429947E+01  0.80082997352E+02  0.80071401863E+02 0.  0.
       11    1    3    3    0    0 -0.36767387623E+02 -0.15733064349E+02  0.25490579705E+01  0.40073280412E+02  0.00000000000E+00 0. -1.
      -12    1    3    3    0    0  0.36767387623E+02  0.15733064349E+02 -0.11863149758E+01  0.40009716940E+02  0.00000000000E+00 0.  1.
</event>
<event>
 5   0  0.2392100E+01  0.8069685E+02  0.7957747E-01  0.1325702E+00
       -2   -1    0    0    0  501  0.00000000000E+00  0.00000000000E+00  0.86295288204E+01  0.86295288204E+01  0.00000000000E+00 0.  1.
        1   -1    0    0  501    0  0.00000000000E+00  0.00000000000E+00 -0.18865402002E+03  0.18865402002E+03  0.00000000000E+00 0. -1.
      -24    2    1    2    0    0  0.00000000000E+00  0.00000000000E+00 -0.18002449120E+03  0.19728354884E+03  0.80696847592E+02 0.  0.
       11    1    3    3    0    0  0.26251490445E+00  0.38783822083E+02 -0.11720743257E+03  0.12345783093E+03  0.00000000000E+00 0. -1.
      -12    1    3    3    0    0 -0.26251490445E+00 -0.38783822083E+02 -0.62817058632E+02  0.73825717908E+02  0.00000000000E+00 0.  1.
</event>
<event>
 5   0  0.2392100E+01  0.8198429E+02  0.7957747E-01  0.1322317E+00
       -2   -1    0    0    0  501  0.00000000000E+00  0.00000000000E+00  0.99015289271E+02  0.99015289271E+02  0.00000000000E+00 0.  1.
        1   -1    0    0  501    0  0.00000000000E+00  0.00000000000E+00 -0.16970671720E+02  0.16970671720E+02  0.00000000000E+00 0. -1.
      -24    2    1    2    0    0  0.00000000000E+00  0.00000000000E+00  0.82044617551E+02  0.11598596099E+03  0.81984290434E+02 0.  0.
       11    1    3    3    0    0  0.76381432235E+01  0.39502439013E+02  0.52123423430E+02  0.65845540396E+02  0.00000000000E+00 0. -1.
      -12    1    3    3    0    0 -0.76381432235E+01 -0.39502439013E+02  0.29921194121E+02  0.50140420596E+02  0.00000000000E+00 0.  1.
</event>
<event>
 5   0  0.2392100E+01  0.7876685E+02  0.7957747E-01  0.1330914E+00
        1   -1    0    0  501    0  0.00000000000E+00  0.00000000000E+00  0.50225577737E+01  0.50225577737E+01  0.00000000000E+00 0. -1.
       -2   -1    0    0    0  501  0.00000000000E+00  0.00000000000E+00 -0.30881761529E+03  0.30881761529E+03  0.00000000000E+00 0.  1.
      -24    2    1    2    0    0  0.00000000000E+00  0.00000000000E+00 -0.30379505752E+03  0.31384017307E+03  0.78766853799E+02 0.  0.
       11    1    3    3    0    0  0.25167330803E+02  0.12688355013E+01 -0.31303838420E+02  0.40186251170E+02  0.00000000000E+00 0. -1.
      -12    1    3    3    0    0 -0.25167330803E+02 -0.12688355013E+01 -0.27249121910E+03  0.27365392190E+03  0.00000000000E+00 0.  1.
</event>
<event>
 5   0  0.2392100E+01  0.9415961E+02  0.7957747E-01  0.1293421E+00
       -2   -1    0    0    0  501  0.00000000000E+00  0.00000000000E+00  0.52528569005E+01  0.52528569005E+01  0.00000000000E+00 0.  1.
        1   -1    0    0  501    0  0.00000000000E+00  0.00000000000E+00 -0.42196238484E+03  0.42196238484E+03  0.00000000000E+00 0. -1.
      -24    2    1    2    0    0  0.00000000000E+00  0.00000000000E+00 -0.41670952794E+03  0.42721524174E+03  0.94159609705E+02 0.  0.
       11    1    3    3    0    0 -0.43459105101E+02  0.17413701143E+02 -0.23084782069E+03  0.23554754747E+03  0.00000000000E+00 0. -1.
      -12    1    3    3    0    0  0.43459105101E+02 -0.17413701143E+02 -0.18586170725E+03  0.19166769427E+03  0.00000000000E+00 0.  1.
</event>
<event>
 5   0  0.2392100E+01  0.8086250E+02  0.7957747E-01  0.1325263E+00
        1   -1    0    0  501    0  0.00000000000E+00  0.00000000000E+00  0.15593253760E+03  0.15593253760E+03  0.00000000000E+00 0. -1.
       -2   -1    0    0    0  501  0.00000000000E+00  0.00000000000E+00 -0.10483289747E+02  0.10483289747E+02  0.00000000000E+00 0.  1.
      -24    2    1    2    0    0  0.00000000000E+00  0.00000000000E+00  0.14544924785E+03  0.16641582734E+03  0.80862499903E+02 0.  0.
       11    1    3    3    0    0 -0.14473914818E+02  0.31987338842E+02  0.11398769296E+03  0.11927228598E+03  0.00000000000E+00 0. -1.
      -12    1    3    3    0    0  0.14473914818E+02 -0.31987338842E+02  0.31461554890E+02  0.47143541365E+02  0.00000000000E+00 0.  1.
</event>
<event>
 5   0  0.2392100E+01  0.8000946E+02  0.7957747E-01  0.1327539E+00
       -2   -1    0    0    0  501  0.00000000000E+00  0.00000000000E+00  0.10469884263E+02  0.10469884263E+02  0.00000000000E+00 0.  1.
        1   -1    0    0  501    0  0.00000000000E+00  0.00000000000E+00 -0.15285539953E+03  0.15285539953E+03  0.00000000000E+00 0. -1.
      -24    2    1    2    0    0  0.00000000000E+00  0.00000000000E+00 -0.14238551527E+03  0.16332528379E+03  0.80009457990E+02 0.  0.
       11    1    3    3    0    0  0.38904900718E+02 -0.90856779502E+01 -0.75394862264E+02  0.85325998966E+02  0.00000000000E+00 0. -1.
      -12    1    3    3    0    0 -0.38904900718E+02  0.90856779502E+01 -0.66990653001E+02  0.77999284825E+02  0.00000000000E+00 0.  1.
</event>
<event>
 4   0  0.2392100E+01  0.4482445E+02  0.7957747E-01  0.1465037E+00
       -4   -1    0    0    0  501  0.00000000000E+00  0.00000000000E+00  0.11312200351E+02  0.11312200351E+02  0.00000000000E+00 0.  1.
        3   -1    0    0  501    0  0.00000000000E+00  0.00000000000E+00 -0.44404073742E+02  0.44404073742E+02  0.00000000000E+00 0. -1.
       11    1    1    2    0    0  0.11258275622E+02 -0.10111326185E+02 -0.37095514204E+02  0.40063260742E+02  0.00000000000E+00 0. -1.
      -12    1    1    2    0    0 -0.11258275622E+02  0.10111326185E+02  0.40036408131E+01  0.15653013351E+02  0.00000000000E+00 0.  1.
</event>
<event>
 5   0  0.2392100E+01  0.7930621E+02  0.7957747E-01  0.1329441E+00
       -2   -1    0    0    0  501  0.00000000000E+00  0.00000000000E+00  0.11567465933E+03  0.11567465933E+03  0.00000000000E+00 0.  1.
        1   -1    0    0  501    0  0.00000000000E+00  0.00000000000E+00 -0.13593025736E+02  0.13593025736E+02  0.00000000000E+00 0. -1.
      -24    2    1    2    0    0  0.00000000000E+00  0.00000000000E+00  0.10208163360E+03  0.12926768507E+03  0.79306207103E+02 0.  0.
       11    1    3    3    0    0 -0.15312853927E+01  0.18547118684E+02 -0.60324874940E+01  0.19563520946E+02  0.00000000000E+00 0. -1.
      -12    1    3    3    0    0  0.15312853927E+01 -0.18547118684E+02  0.10811412109E+03  0.10970416412E+03  0.00000000000E+00 0.  1.
</event>
</LesHouchesEvents>
