<LesHouchesEvents version="1.0">
<header>
<!--
#*********************************************************************
#                                                                    *
#                            MadGraph 5                              *
#                                                                    *
#                           Going Beyond                             *
#                                                                    *
#                   http://madgraph.hep.uiuc.edu                     *
#                   http://madgraph.phys.ucl.ac.be                   *
#                   http://madgraph.roma2.infn.it                    *
#                                                                    *
#                         The MadGraph team                          *
#                                                                    *
#....................................................................*
#                                                                    *
# This file contains all the information necessary to reproduce      *
# the events generated:                                              *
#                                                                    *
# 1. software version                                                *
# 2. proc_card          : code generation info including model       *
# 3. param_card         : model primary parameters in the LH format  *
# 4. run_card           : running parameters (collider and cuts)     *
# 5. pythia_card        : present only if pythia has been run        *
# 6. pgs_card           : present only if pgs has been run           *
# 7. delphes_cards      : present only if delphes has been run       *
#                                                                    *
#                                                                    *
#*********************************************************************
-->
<MGVersion>
# MG    version    : 5.1.3.20
</MGVersion>
<MG5ProcCard>
#************************************************************
#*                        MadGraph 5                        *
#*                                                          *
#*                *                       *                 *
#*                  *        * *        *                   *
#*                    * * * * 5 * * * *                     *
#*                  *        * *        *                   *
#*                *                       *                 *
#*                                                          *
#*                                                          *
#*         VERSION 1.3.20                2011-10-09         *
#*                                                          *
#*    The MadGraph Development Team - Please visit us at    *
#*    https://server06.fynu.ucl.ac.be/projects/madgraph     *
#*                                                          *
#************************************************************
#*                                                          *
#*               Command File for MadGraph 5                *
#*                                                          *
#*     run as ./bin/mg5  filename                           *
#*                                                          *
#************************************************************
import model sm
generate p  p > e- ve~
output ex_01
</MG5ProcCard>
<MGProcCard>
#*********************************************************************
#                        MadGraph/MadEvent                           *
#                   http://madgraph.hep.uiuc.edu                     *
#                                                                    *
#                          proc_card.dat                             *
#*********************************************************************
#                                                                    *
#            This Files is generated by MADGRAPH 5                   *
#                                                                    *
# WARNING: This Files is generated for MADEVENT (compatibility issue)*
#          This files is NOT a valid MG4 proc_card.dat               *
#          Running this in MG4 will NEVER reproduce the result of MG5*
#                                                                    *
#*********************************************************************
#*********************************************************************
# Process(es) requested : mg2 input                                  *
#*********************************************************************
# Begin PROCESS # This is TAG. Do not modify this line
p p > e- ve~           #Process
# Be carefull the coupling are here in MG5 convention
end_coup           # End the couplings input
done               # this tells MG there are no more procs
# End PROCESS  # This is TAG. Do not modify this line
#*********************************************************************
# Model information                                                  *
#*********************************************************************
# Begin MODEL  # This is TAG. Do not modify this line
sm
# End   MODEL  # This is TAG. Do not modify this line
#*********************************************************************
# Start multiparticle definitions                                    *
#*********************************************************************
# Begin MULTIPARTICLES # This is TAG. Do not modify this line
# End  MULTIPARTICLES # This is TAG. Do not modify this line
</MGProcCard>
<slha>
######################################################################
## PARAM_CARD AUTOMATICALY GENERATED BY MG5 FOLLOWING UFO MODEL   ####
######################################################################
###################################
## INFORMATION FOR MASS
###################################
Block mass 
    5 4.700000e+00 # MB 
    6 1.730000e+02 # MT 
   15 1.777000e+00 # MTA 
   23 9.118800e+01 # MZ 
   25 1.200000e+02 # MH 
##  Not dependent paramater.
## Those values should be edited following the 
## analytical expression. MG5 ignore those values 
## but they are important for interfacing the output of MG5
## to external program such as Pythia.
  12 0.000000 # ve : 0.0 
  14 0.000000 # vm : 0.0 
  16 0.000000 # vt : 0.0 
  2 0.000000 # u : 0.0 
  4 0.000000 # c : 0.0 
  1 0.000000 # d : 0.0 
  3 0.000000 # s : 0.0 
  22 0.000000 # a : 0.0 
  24 80.419002 # w+ : cmath.sqrt(MZ__exp__2/2. + cmath.sqrt(MZ__exp__4/4. - (aEW*cmath.pi*MZ__exp__2)/(Gf*sqrt__2))) 
  21 0.000000 # g : 0.0 
  11 0.000000 # e- : 0.0 
  13 0.000000 # mu- : 0.0 
###################################
## INFORMATION FOR SMINPUTS
###################################
Block sminputs 
    1 1.325070e+02 # aEWM1 
    2 1.166390e-05 # Gf 
    3 1.180000e-01 # aS 
###################################
## INFORMATION FOR YUKAWA
###################################
Block yukawa 
    5 4.200000e+00 # ymb 
    6 1.645000e+02 # ymt 
   15 1.777000e+00 # ymtau 
###################################
## INFORMATION FOR DECAY
###################################
DECAY   6 1.491500e+00 # WT 
DECAY  23 2.441404e+00 # WZ 
DECAY  24 2.047600e+00 # WW 
DECAY  25 5.753088e-03 # WH 
##  Not dependent paramater.
## Those values should be edited following the 
## analytical expression. MG5 ignore those values 
## but they are important for interfacing the output of MG5
## to external program such as Pythia.
DECAY  12 0.000000 # ve : 0.0 
DECAY  14 0.000000 # vm : 0.0 
DECAY  16 0.000000 # vt : 0.0 
DECAY  2 0.000000 # u : 0.0 
DECAY  4 0.000000 # c : 0.0 
DECAY  1 0.000000 # d : 0.0 
DECAY  3 0.000000 # s : 0.0 
DECAY  5 0.000000 # b : 0.0 
DECAY  22 0.000000 # a : 0.0 
DECAY  21 0.000000 # g : 0.0 
DECAY  11 0.000000 # e- : 0.0 
DECAY  13 0.000000 # mu- : 0.0 
DECAY  15 0.000000 # ta- : 0.0 
</slha>
<MGRunCard>
#*********************************************************************
#                       MadGraph/MadEvent                            *
#                  http://madgraph.hep.uiuc.edu                      *
#                                                                    *
#                        run_card.dat                                *
#                                                                    *
#  This file is used to set the parameters of the run.               *
#                                                                    *
#  Some notation/conventions:                                        *
#                                                                    *
#   Lines starting with a '# ' are info or comments                  *
#                                                                    *
#   mind the format:   value    = variable     ! comment             *
#*********************************************************************
#
#*******************
# Running parameters
#*******************
#
#*********************************************************************
# Tag name for the run (one word)                                    *
#*********************************************************************
  'fermi'     = run_tag ! name of the run
#*********************************************************************
# Run to generate the grid pack                                      *
#*********************************************************************
  .false.     = gridpack  !True = setting up the grid pack
#*********************************************************************
# Number of events and rnd seed                                      *
# Warning: Do not generate more than 100K event in a single run      *
#*********************************************************************
   1000       = nevents ! Number of unweighted events requested
      32 = iseed   ! rnd seed (0=assigned automatically=default))
#*********************************************************************
# Collider type and energy                                           *
#*********************************************************************
        1     = lpp1  ! beam 1 type (0=NO PDF)
       -1     = lpp2  ! beam 2 type (0=NO PDF)
      1000     = ebeam1  ! beam 1 energy in GeV
      1000     = ebeam2  ! beam 2 energy in GeV
#*********************************************************************
# Beam polarization from -100 (left-handed) to 100 (right-handed)    *
#*********************************************************************
        0     = polbeam1 ! beam polarization for beam 1
        0     = polbeam2 ! beam polarization for beam 2
#*********************************************************************
# PDF CHOICE: this automatically fixes also alpha_s and its evol.    *
#*********************************************************************
 'cteq6l1'    = pdlabel     ! PDF set
#*********************************************************************
# Renormalization and factorization scales                           *
#*********************************************************************
 F        = fixed_ren_scale  ! if .true. use fixed ren scale
 F        = fixed_fac_scale  ! if .true. use fixed fac scale
 91.1880  = scale            ! fixed ren scale
 91.1880  = dsqrt_q2fact1    ! fixed fact scale for pdf1
 91.1880  = dsqrt_q2fact2    ! fixed fact scale for pdf2
 1        = scalefact        ! scale factor for event-by-event scales
#*********************************************************************
# Matching - Warning! ickkw > 1 is still beta
#*********************************************************************
 0        = ickkw            ! 0 no matching, 1 MLM, 2 CKKW matching
 1        = highestmult      ! for ickkw=2, highest mult group
 1        = ktscheme         ! for ickkw=1, 1 Durham kT, 2 Pythia pTE
 1        = alpsfact         ! scale factor for QCD emission vx
 F        = chcluster        ! cluster only according to channel diag
 T        = pdfwgt           ! for ickkw=1, perform pdf reweighting
#*********************************************************************
# Automatic ptj and mjj cuts if xqcut > 0
# (turn off for VBF and single top processes)
#**********************************************************
   T  = auto_ptj_mjj
#**********************************************************
#
#**********************************
# BW cutoff (M+/-bwcutoff*Gamma)
#**********************************
  15  = bwcutoff
#**********************************************************
# Apply pt/E/eta/dr/mij cuts on decay products or not
# (note that etmiss/ptll/ptheavy/sorted cuts always apply)
#**********************************************************
   T  = cut_decays
#*************************************************************
# Number of helicities to sum per event (0 = all helicities)
# 0 gives more stable result, but longer run time (needed for
# long decay chains e.g.).
# Use >=2 if most helicities contribute, e.g. pure QCD.
#*************************************************************
   0  = nhel
#*******************
# Standard Cuts
#*******************
#
#*********************************************************************
# Minimum and maximum pt's                                           *
#*********************************************************************
 20  = ptj       ! minimum pt for the jets
  0  = ptb       ! minimum pt for the b
 10  = pta       ! minimum pt for the photons
 10  = ptl       ! minimum pt for the charged leptons
  0  = misset    ! minimum missing Et (sum of neutrino's momenta)
  0  = ptheavy   ! minimum pt for one heavy final state
 1.0 = ptonium   ! minimum pt for the quarkonium states
 1d5 = ptjmax    ! maximum pt for the jets
 1d5 = ptbmax    ! maximum pt for the b
 1d5 = ptamax    ! maximum pt for the photons
 1d5 = ptlmax    ! maximum pt for the charged leptons
 1d5 = missetmax ! maximum missing Et (sum of neutrino's momenta)
#*********************************************************************
# Minimum and maximum E's (in the lab frame)                         *
#*********************************************************************
  0  = ej     ! minimum E for the jets
  0  = eb     ! minimum E for the b
  0  = ea     ! minimum E for the photons
  0  = el     ! minimum E for the charged leptons
 1d5  = ejmax ! maximum E for the jets
 1d5  = ebmax ! maximum E for the b
 1d5  = eamax ! maximum E for the photons
 1d5  = elmax ! maximum E for the charged leptons
#*********************************************************************
# Maximum and minimum rapidity                                       *
#*********************************************************************
   5  = etaj    ! max rap for the jets
 1d2  = etab    ! max rap for the b
 2.5  = etaa    ! max rap for the photons
 2.5  = etal    ! max rap for the charged leptons
 0.6  = etaonium ! max rap for the quarkonium states
 0d0  = etajmin ! min rap for the jets
 0d0  = etabmin ! min rap for the b
 0d0  = etaamin ! min rap for the photons
 0d0  = etalmin ! main rap for the charged leptons
#*********************************************************************
# Minimum and maximum DeltaR distance                                *
#*********************************************************************
 0.4 = drjj    ! min distance between jets
 0   = drbb    ! min distance between b's
 0.4 = drll    ! min distance between leptons
 0.4 = draa    ! min distance between gammas
 0   = drbj    ! min distance between b and jet
 0.4 = draj    ! min distance between gamma and jet
 0.4 = drjl    ! min distance between jet and lepton
 0   = drab    ! min distance between gamma and b
 0   = drbl    ! min distance between b and lepton
 0.4 = dral    ! min distance between gamma and lepton
 1d2 = drjjmax ! max distance between jets
 1d2 = drbbmax ! max distance between b's
 1d2 = drllmax ! max distance between leptons
 1d2 = draamax ! max distance between gammas
 1d2 = drbjmax ! max distance between b and jet
 1d2 = drajmax ! max distance between gamma and jet
 1d2 = drjlmax ! max distance between jet and lepton
 1d2 = drabmax ! max distance between gamma and b
 1d2 = drblmax ! max distance between b and lepton
 1d2 = dralmax ! maxdistance between gamma and lepton
#*********************************************************************
# Minimum and maximum invariant mass for pairs                       *
#*********************************************************************
 0   = mmjj    ! min invariant mass of a jet pair
 0   = mmbb    ! min invariant mass of a b pair
 0   = mmaa    ! min invariant mass of gamma gamma pair
 0   = mmll    ! min invariant mass of l+l- (same flavour) lepton pair
 1d5 = mmjjmax ! max invariant mass of a jet pair
 1d5 = mmbbmax ! max invariant mass of a b pair
 1d5 = mmaamax ! max invariant mass of gamma gamma pair
 1d5 = mmllmax ! max invariant mass of l+l- (same flavour) lepton pair
#*********************************************************************
# Minimum and maximum invariant mass for all letpons                 *
#*********************************************************************
 0   = mmnl    ! min invariant mass for all letpons (l+- and vl)
 1d5 = mmnlmax ! max invariant mass for all letpons (l+- and vl)
#*********************************************************************
# Minimum and maximum pt for 4-momenta sum of leptons                *
#*********************************************************************
 0   = ptllmin  ! Minimum pt for 4-momenta sum of leptons(l and vl)
 1d5 = ptllmax  ! Maximum pt for 4-momenta sum of leptons(l and vl)
#*********************************************************************
# Inclusive cuts                                                     *
#*********************************************************************
 0  = xptj ! minimum pt for at least one jet
 0  = xptb ! minimum pt for at least one b
 0  = xpta ! minimum pt for at least one photon
 0  = xptl ! minimum pt for at least one charged lepton
#*********************************************************************
# Control the pt's of the jets sorted by pt                          *
#*********************************************************************
 0   = ptj1min ! minimum pt for the leading jet in pt
 0   = ptj2min ! minimum pt for the second jet in pt
 0   = ptj3min ! minimum pt for the third jet in pt
 0   = ptj4min ! minimum pt for the fourth jet in pt
 1d5 = ptj1max ! maximum pt for the leading jet in pt
 1d5 = ptj2max ! maximum pt for the second jet in pt
 1d5 = ptj3max ! maximum pt for the third jet in pt
 1d5 = ptj4max ! maximum pt for the fourth jet in pt
 0   = cutuse  ! reject event if fails any (0) / all (1) jet pt cuts
#*********************************************************************
# Control the Ht(k)=Sum of k leading jets                            *
#*********************************************************************
 0   = htjmin ! minimum jet HT=Sum(jet pt)
 1d5 = htjmax ! maximum jet HT=Sum(jet pt)
 0   = ihtmin  !inclusive Ht for all partons (including b)
 1d5 = ihtmax  !inclusive Ht for all partons (including b)
 0   = ht2min ! minimum Ht for the two leading jets
 0   = ht3min ! minimum Ht for the three leading jets
 0   = ht4min ! minimum Ht for the four leading jets
 1d5 = ht2max ! maximum Ht for the two leading jets
 1d5 = ht3max ! maximum Ht for the three leading jets
 1d5 = ht4max ! maximum Ht for the four leading jets
#*********************************************************************
# WBF cuts                                                           *
#*********************************************************************
 0   = xetamin ! minimum rapidity for two jets in the WBF case
 0   = deltaeta ! minimum rapidity for two jets in the WBF case
#*********************************************************************
# maximal pdg code for quark to be considered as a light jet         *
# (otherwise b cuts are applied)                                     *
#*********************************************************************
 4 = maxjetflavor
#*********************************************************************
# Jet measure cuts                                                   *
#*********************************************************************
 0   = xqcut   ! minimum kt jet measure between partons
#*********************************************************************
</MGRunCard>
<MGGenerationInfo>
#  Number of Events        :        1000
#  Integrated weight (pb)  :  .89363E+03
#  Truncated wgt (pb)      :  .00000E+00
#  Unit wgt                :  .89363E+00
</MGGenerationInfo>
</header>
<init>
     2212    -2212  0.10000000000E+04  0.10000000000E+04 0 0 10042 10042 3  1
  0.89363000000E+03  0.41629000000E+01  0.89363000000E+00   0
</init>
<event>
 5   0  0.8936300E+00  0.8044319E+02  0.7957747E-01  0.1326378E+00
        1   -1    0    0  501    0  0.00000000000E+00  0.00000000000E+00  0.12813205054E+03  0.12813205054E+03  0.00000000000E+00 0. -1.
       -2   -1    0    0    0  501  0.00000000000E+00  0.00000000000E+00 -0.12625856555E+02  0.12625856555E+02  0.00000000000E+00 0.  1.
      -24    2    1    2    0    0  0.00000000000E+00  0.00000000000E+00  0.11550619399E+03  0.14075790710E+03  0.80443194622E+02 0.  0.
       11    1    3    3    0    0  0.14054106372E+02 -0.29141975894E+02  0.99565309834E+02  0.10469013128E+03  0.00000000000E+00 0. -1.
      -12    1    3    3    0    0 -0.14054106372E+02  0.29141975894E+02  0.15940884154E+02  0.36067775819E+02  0.00000000000E+00 0.  1.
</event>
<event>
 5   0  0.8936300E+00  0.8236979E+02  0.7957747E-01  0.1321317E+00
        1   -1    0    0  501    0  0.00000000000E+00  0.00000000000E+00  0.44431121170E+02  0.44431121170E+02  0.00000000000E+00 0. -1.
       -2   -1    0    0    0  501  0.00000000000E+00  0.00000000000E+00 -0.38175845308E+02  0.38175845308E+02  0.00000000000E+00 0.  1.
      -24    2    1    2    0    0  0.00000000000E+00  0.00000000000E+00  0.62552758628E+01  0.82606966478E+02  0.82369790789E+02 0.  0.
       11    1    3    3    0    0  0.33375871985E+02 -0.25710160084E+00  0.27325533856E+02  0.43135828872E+02  0.00000000000E+00 0. -1.
      -12    1    3    3    0    0 -0.33375871985E+02  0.25710160084E+00 -0.21070257993E+02  0.39471137606E+02  0.00000000000E+00 0.  1.
</event>
<event>
 5   0  0.8936300E+00  0.8131410E+02  0.7957747E-01  0.1324070E+00
        1   -1    0    0  501    0  0.00000000000E+00  0.00000000000E+00  0.13719035305E+03  0.13719035305E+03  0.00000000000E+00 0. -1.
       -2   -1    0    0    0  501  0.00000000000E+00  0.00000000000E+00 -0.12048921923E+02  0.12048921923E+02  0.00000000000E+00 0.  1.
      -24    2    1    2    0    0  0.00000000000E+00  0.00000000000E+00  0.12514143113E+03  0.14923927497E+03  0.81314103388E+02 0.  0.
       11    1    3    3    0    0 -0.16301943947E+02  0.15818722829E+02  0.12445772367E+03  0.12651367654E+03  0.00000000000E+00 0. -1.
      -12    1    3    3    0    0  0.16301943947E+02 -0.15818722829E+02  0.68370745147E+00  0.22725598436E+02  0.00000000000E+00 0.  1.
</event>
<event>
 5   0  0.8936300E+00  0.8096226E+02  0.7957747E-01  0.1324999E+00
        1   -1    0    0  501    0  0.00000000000E+00  0.00000000000E+00  0.20491754189E+02  0.20491754189E+02  0.00000000000E+00 0. -1.
       -2   -1    0    0    0  501  0.00000000000E+00  0.00000000000E+00 -0.79969826448E+02  0.79969826448E+02  0.00000000000E+00 0.  1.
      -24    2    1    2    0    0  0.00000000000E+00  0.00000000000E+00 -0.59478072260E+02  0.10046158064E+03  0.80962263459E+02 0.  0.
       11    1    3    3    0    0 -0.39037860450E+02  0.48946202711E+01 -0.17914486455E+02  0.43230089996E+02  0.00000000000E+00 0. -1.
      -12    1    3    3    0    0  0.39037860450E+02 -0.48946202711E+01 -0.41563585805E+02  0.57231490641E+02  0.00000000000E+00 0.  1.
</event>
<event>
 5   0  0.8936300E+00  0.8466683E+02  0.7957747E-01  0.1315483E+00
        1   -1    0    0  501    0  0.00000000000E+00  0.00000000000E+00  0.47025946600E+01  0.47025946600E+01  0.00000000000E+00 0. -1.
       -2   -1    0    0    0  501  0.00000000000E+00  0.00000000000E+00 -0.38109131580E+03  0.38109131580E+03  0.00000000000E+00 0.  1.
      -24    2    1    2    0    0  0.00000000000E+00  0.00000000000E+00 -0.37638872114E+03  0.38579391046E+03  0.84666829080E+02 0.  0.
       11    1    3    3    0    0  0.22975922188E+02  0.26915148279E+02 -0.82327892427E+02  0.89611383644E+02  0.00000000000E+00 0. -1.
      -12    1    3    3    0    0 -0.22975922188E+02 -0.26915148279E+02 -0.29406082871E+03  0.29618252682E+03  0.00000000000E+00 0.  1.
</event>
<event>
 5   0  0.8936300E+00  0.7894544E+02  0.7957747E-01  0.1330425E+00
        1   -1    0    0  501    0  0.00000000000E+00  0.00000000000E+00  0.24566257293E+02  0.24566257293E+02  0.00000000000E+00 0. -1.
       -2   -1    0    0    0  501  0.00000000000E+00  0.00000000000E+00 -0.63424209934E+02  0.63424209934E+02  0.00000000000E+00 0.  1.
      -24    2    1    2    0    0  0.00000000000E+00  0.00000000000E+00 -0.38857952641E+02  0.87990467228E+02  0.78945435837E+02 0.  0.
       11    1    3    3    0    0 -0.38554349701E+02 -0.63969122676E+01 -0.13249666242E+02  0.41266354612E+02  0.00000000000E+00 0. -1.
      -12    1    3    3    0    0  0.38554349701E+02  0.63969122676E+01 -0.25608286399E+02  0.46724112616E+02  0.00000000000E+00 0.  1.
</event>
<event>
 5   0  0.8936300E+00  0.8268607E+02  0.7957747E-01  0.1320501E+00
        1   -1    0    0  501    0  0.00000000000E+00  0.00000000000E+00  0.30419540744E+03  0.30419540744E+03  0.00000000000E+00 0. -1.
       -2   -1    0    0    0  501  0.00000000000E+00  0.00000000000E+00 -0.56189101366E+01  0.56189101366E+01  0.00000000000E+00 0.  1.
      -24    2    1    2    0    0  0.00000000000E+00  0.00000000000E+00  0.29857649730E+03  0.30981431758E+03  0.82686072790E+02 0.  0.
       11    1    3    3    0    0  0.39439068912E+02 -0.63737254584E+01  0.10942634442E+03  0.11649115582E+03  0.00000000000E+00 0. -1.
      -12    1    3    3    0    0 -0.39439068912E+02  0.63737254584E+01  0.18915015289E+03  0.19332316175E+03  0.00000000000E+00 0.  1.
</event>
<event>
 5   0  0.8936300E+00  0.8249929E+02  0.7957747E-01  0.1320982E+00
        1   -1    0    0  501    0  0.00000000000E+00  0.00000000000E+00  0.22880076778E+02  0.22880076778E+02  0.00000000000E+00 0. -1.
       -2   -1    0    0    0  501  0.00000000000E+00  0.00000000000E+00 -0.74367455597E+02  0.74367455597E+02  0.00000000000E+00 0.  1.
      -24    2    1    2    0    0  0.00000000000E+00  0.00000000000E+00 -0.51487378819E+02  0.97247532376E+02  0.82499287121E+02 0.  0.
       11    1    3    3    0    0  0.14364882194E+02 -0.14821152054E+02  0.16355280515E+02  0.26334608207E+02  0.00000000000E+00 0. -1.
      -12    1    3    3    0    0 -0.14364882194E+02  0.14821152054E+02 -0.67842659334E+02  0.70912924169E+02  0.00000000000E+00 0.  1.
</event>
<event>
 5   0  0.8936300E+00  0.7362381E+02  0.7957747E-01  0.1345670E+00
        1   -1    0    0  501    0  0.00000000000E+00  0.00000000000E+00  0.22013037739E+02  0.22013037739E+02  0.00000000000E+00 0. -1.
       -2   -1    0    0    0  501  0.00000000000E+00  0.00000000000E+00 -0.61559710681E+02  0.61559710681E+02  0.00000000000E+00 0.  1.
      -24    2    1    2    0    0  0.00000000000E+00  0.00000000000E+00 -0.39546672942E+02  0.83572748420E+02  0.73623806868E+02 0.  0.
       11    1    3    3    0    0  0.36535322476E+01 -0.33895706740E+02 -0.40097471487E+01  0.34327034616E+02  0.00000000000E+00 0. -1.
      -12    1    3    3    0    0 -0.36535322476E+01  0.33895706740E+02 -0.35536925793E+02  0.49245713805E+02  0.00000000000E+00 0.  1.
</event>
<event>
 5   0  0.8936300E+00  0.8124152E+02  0.7957747E-01  0.1324261E+00
        1   -1    0    0  501    0  0.00000000000E+00  0.00000000000E+00  0.86549529361E+01  0.86549529361E+01  0.00000000000E+00 0. -1.
       -2   -1    0    0    0  501  0.00000000000E+00  0.00000000000E+00 -0.19064760119E+03  0.19064760119E+03  0.00000000000E+00 0.  1.
      -24    2    1    2    0    0  0.00000000000E+00  0.00000000000E+00 -0.18199264825E+03  0.19930255412E+03  0.81241516865E+02 0.  0.
       11    1    3    3    0    0  0.24984595707E+02  0.29970628951E+02 -0.63287269873E+02  0.74348820773E+02  0.00000000000E+00 0. -1.
      -12    1    3    3    0    0 -0.24984595707E+02 -0.29970628951E+02 -0.11870537838E+03  0.12495373335E+03  0.00000000000E+00 0.  1.
</event>
<event>
 5   0  0.8936300E+00  0.8164367E+02  0.7957747E-01  0.1323206E+00
        1   -1    0    0  501    0  0.00000000000E+00  0.00000000000E+00  0.54594039839E+01  0.54594039839E+01  0.00000000000E+00 0. -1.
       -2   -1    0    0    0  501  0.00000000000E+00  0.00000000000E+00 -0.30523881913E+03  0.30523881913E+03  0.00000000000E+00 0.  1.
      -24    2    1    2    0    0  0.00000000000E+00  0.00000000000E+00 -0.29977941515E+03  0.31069822311E+03  0.81643665406E+02 0.  0.
       11    1    3    3    0    0 -0.35200131735E+02  0.10458145182E+02 -0.82027215890E+02  0.89871498383E+02  0.00000000000E+00 0. -1.
      -12    1    3    3    0    0  0.35200131735E+02 -0.10458145182E+02 -0.21775219926E+03  0.22082672473E+03  0.00000000000E+00 0.  1.
</event>
<event>
 4   0  0.8936300E+00  0.4073753E+02  0.7957747E-01  0.1490510E+00
        3   -1    0    0  501    0  0.00000000000E+00  0.00000000000E+00  0.79363139214E+02  0.79363139214E+02  0.00000000000E+00 0. -1.
       -4   -1    0    0    0  501  0.00000000000E+00  0.00000000000E+00 -0.52276986878E+01  0.52276986878E+01  0.00000000000E+00 0.  1.
       11    1    1    2    0    0  0.17367628570E+02 -0.80083562186E+01  0.22514796790E+02  0.29541231625E+02  0.00000000000E+00 0. -1.
      -12    1    1    2    0    0 -0.17367628570E+02  0.80083562186E+01  0.51620643737E+02  0.55049606277E+02  0.00000000000E+00 0.  1.
</event>
<event>
 5   0  0.8936300E+00  0.8292439E+02  0.7957747E-01  0.1319889E+00
        1   -1    0    0  501    0  0.00000000000E+00  0.00000000000E+00  0.18593642531E+03  0.18593642531E+03  0.00000000000E+00 0. -1.
       -2   -1    0    0    0  501  0.00000000000E+00  0.00000000000E+00 -0.92457059973E+01  0.92457059973E+01  0.00000000000E+00 0.  1.
      -24    2    1    2    0    0  0.00000000000E+00  0.00000000000E+00  0.17669071931E+03  0.19518213130E+03  0.82924387789E+02 0.  0.
       11    1    3    3    0    0  0.15370289790E+02 -0.26436031547E+02  0.15425013858E+03  0.15725207415E+03  0.00000000000E+00 0. -1.
      -12    1    3    3    0    0 -0.15370289790E+02  0.26436031547E+02  0.22440580726E+02  0.37930057152E+02  0.00000000000E+00 0.  1.
</event>
<event>
 5   0  0.8936300E+00  0.1067888E+03  0.7957747E-01  0.1268229E+00
        1   -1    0    0  501    0  0.00000000000E+00  0.00000000000E+00  0.42402246199E+02  0.42402246199E+02  0.00000000000E+00 0. -1.
       -2   -1    0    0    0  501  0.00000000000E+00  0.00000000000E+00 -0.67236088995E+02  0.67236088995E+02  0.00000000000E+00 0.  1.
      -24    2    1    2    0    0  0.00000000000E+00  0.00000000000E+00 -0.24833842797E+02  0.10963833519E+03  0.10678878591E+03 0.  0.
       11    1    3    3    0    0 -0.47004088826E+02 -0.12808759840E+02  0.10018237901E+02  0.49737448523E+02  0.00000000000E+00 0. -1.
      -12    1    3    3    0    0  0.47004088826E+02  0.12808759840E+02 -0.34852080698E+02  0.59900886671E+02  0.00000000000E+00 0.  1.
</event>
<event>
 5   0  0.8936300E+00  0.7094838E+02  0.7957747E-01  0.1353899E+00
        1   -1    0    0  501    0  0.00000000000E+00  0.00000000000E+00  0.30516204373E+02  0.30516204373E+02  0.00000000000E+00 0. -1.
       -2   -1    0    0    0  501  0.00000000000E+00  0.00000000000E+00 -0.41237698811E+02  0.41237698811E+02  0.00000000000E+00 0.  1.
      -24    2    1    2    0    0  0.00000000000E+00  0.00000000000E+00 -0.10721494438E+02  0.71753903183E+02  0.70948376860E+02 0.  0.
       11    1    3    3    0    0 -0.15989487358E+02 -0.31541028919E+02 -0.25149349419E+01  0.35451729281E+02  0.00000000000E+00 0. -1.
      -12    1    3    3    0    0  0.15989487358E+02  0.31541028919E+02 -0.82065594964E+01  0.36302173902E+02  0.00000000000E+00 0.  1.
</event>
<event>
 5   0  0.8936300E+00  0.8105551E+02  0.7957747E-01  0.1324752E+00
        1   -1    0    0  501    0  0.00000000000E+00  0.00000000000E+00  0.66712067211E+01  0.66712067211E+01  0.00000000000E+00 0. -1.
       -2   -1    0    0    0  501  0.00000000000E+00  0.00000000000E+00 -0.24620718631E+03  0.24620718631E+03  0.00000000000E+00 0.  1.
      -24    2    1    2    0    0  0.00000000000E+00  0.00000000000E+00 -0.23953597959E+03  0.25287839303E+03  0.81055512733E+02 0.  0.
       11    1    3    3    0    0  0.55508875165E+01  0.37582025802E+02 -0.75726817972E+02  0.84721732606E+02  0.00000000000E+00 0. -1.
      -12    1    3    3    0    0 -0.55508875165E+01 -0.37582025802E+02 -0.16380916162E+03  0.16815666043E+03  0.00000000000E+00 0.  1.
</event>
<event>
 5   0  0.8936300E+00  0.8006028E+02  0.7957747E-01  0.1327403E+00
        1   -1    0    0  501    0  0.00000000000E+00  0.00000000000E+00  0.40641443387E+02  0.40641443387E+02  0.00000000000E+00 0. -1.
       -2   -1    0    0    0  501  0.00000000000E+00  0.00000000000E+00 -0.39428035308E+02  0.39428035308E+02  0.00000000000E+00 0.  1.
      -24    2    1    2    0    0  0.00000000000E+00  0.00000000000E+00  0.12134080792E+01  0.80069478695E+02  0.80060283908E+02 0.  0.
       11    1    3    3    0    0 -0.14325420398E+02 -0.36854301765E+02  0.68488178663E+01  0.40129335085E+02  0.00000000000E+00 0. -1.
      -12    1    3    3    0    0  0.14325420398E+02  0.36854301765E+02 -0.56354097871E+01  0.39940143611E+02  0.00000000000E+00 0.  1.
</event>
<event>
 5   0  0.8936300E+00  0.6913485E+02  0.7957747E-01  0.1359715E+00
        1   -1    0    0  501    0  0.00000000000E+00  0.00000000000E+00  0.88425120306E+02  0.88425120306E+02  0.00000000000E+00 0. -1.
       -2   -1    0    0    0  501  0.00000000000E+00  0.00000000000E+00 -0.13513206057E+02  0.13513206057E+02  0.00000000000E+00 0.  1.
      -24    2    1    2    0    0  0.00000000000E+00  0.00000000000E+00  0.74911914248E+02  0.10193832636E+03  0.69134850006E+02 0.  0.
       11    1    3    3    0    0 -0.85171740736E+00  0.28957881954E+02  0.65261738421E+02  0.71402933074E+02  0.00000000000E+00 0. -1.
      -12    1    3    3    0    0  0.85171740736E+00 -0.28957881954E+02  0.96501758270E+01  0.30535393289E+02  0.00000000000E+00 0.  1.
</event>
<event>
 5   0  0.8936300E+00  0.7733108E+02  0.7957747E-01  0.1334902E+00
        1   -1    0    0  501    0  0.00000000000E+00  0.00000000000E+00  0.27106760620E+01  0.27106760620E+01  0.00000000000E+00 0. -1.
       -2   -1    0    0    0  501  0.00000000000E+00  0.00000000000E+00 -0.55153179102E+03  0.55153179102E+03  0.00000000000E+00 0.  1.
      -24    2    1    2    0    0  0.00000000000E+00  0.00000000000E+00 -0.54882111496E+03  0.55424246708E+03  0.77331081031E+02 0.  0.
       11    1    3    3    0    0  0.61532719344E+01  0.34316928429E+02 -0.15458646376E+03  0.15846920556E+03  0.00000000000E+00 0. -1.
      -12    1    3    3    0    0 -0.61532719344E+01 -0.34316928429E+02 -0.39423465120E+03  0.39577326153E+03  0.00000000000E+00 0.  1.
</event>
<event>
 5   0  0.8936300E+00  0.8530387E+02  0.7957747E-01  0.1313902E+00
       -2   -1    0    0    0  501  0.00000000000E+00  0.00000000000E+00  0.20481178653E+03  0.20481178653E+03  0.00000000000E+00 0.  1.
        1   -1    0    0  501    0  0.00000000000E+00  0.00000000000E+00 -0.88822414198E+01  0.88822414198E+01  0.00000000000E+00 0. -1.
      -24    2    1    2    0    0  0.00000000000E+00  0.00000000000E+00  0.19592954511E+03  0.21369402795E+03  0.85303874087E+02 0.  0.
       11    1    3    3    0    0 -0.20735591675E+02 -0.31915953770E+02  0.49739651157E+02  0.62630869102E+02  0.00000000000E+00 0. -1.
      -12    1    3    3    0    0  0.20735591675E+02  0.31915953770E+02  0.14618989395E+03  0.15106315885E+03  0.00000000000E+00 0.  1.
</event>
<event>
 5   0  0.8936300E+00  0.8164819E+02  0.7957747E-01  0.1323194E+00
       -2   -1    0    0    0  501  0.00000000000E+00  0.00000000000E+00  0.40811656270E+02  0.40811656270E+02  0.00000000000E+00 0.  1.
        1   -1    0    0  501    0  0.00000000000E+00  0.00000000000E+00 -0.40836536693E+02  0.40836536693E+02  0.00000000000E+00 0. -1.
      -24    2    1    2    0    0  0.00000000000E+00  0.00000000000E+00 -0.24880423094E-01  0.81648192963E+02  0.81648189172E+02 0.  0.
       11    1    3    3    0    0 -0.34150300860E+02  0.10331202105E+02 -0.19852549827E+02  0.40830142302E+02  0.00000000000E+00 0. -1.
      -12    1    3    3    0    0  0.34150300860E+02 -0.10331202105E+02  0.19827669404E+02  0.40818050661E+02  0.00000000000E+00 0.  1.
</event>
<event>
 5   0  0.8936300E+00  0.6551819E+02  0.7957747E-01  0.1371946E+00
        1   -1    0    0  501    0  0.00000000000E+00  0.00000000000E+00  0.44502487618E+01  0.44502487618E+01  0.00000000000E+00 0. -1.
       -2   -1    0    0    0  501  0.00000000000E+00  0.00000000000E+00 -0.24114567816E+03  0.24114567816E+03  0.00000000000E+00 0.  1.
      -24    2    1    2    0    0  0.00000000000E+00  0.00000000000E+00 -0.23669542940E+03  0.24559592692E+03  0.65518188486E+02 0.  0.
       11    1    3    3    0    0 -0.79667637863E+01  0.26452554730E+02 -0.52353480289E+02  0.59195387281E+02  0.00000000000E+00 0. -1.
      -12    1    3    3    0    0  0.79667637863E+01 -0.26452554730E+02 -0.18434194911E+03  0.18640053964E+03  0.00000000000E+00 0.  1.
</event>
<event>
 5   0  0.8936300E+00  0.8155722E+02  0.7957747E-01  0.1323432E+00
        3   -1    0    0  501    0  0.00000000000E+00  0.00000000000E+00  0.12847322314E+02  0.12847322314E+02  0.00000000000E+00 0. -1.
       -4   -1    0    0    0  501  0.00000000000E+00  0.00000000000E+00 -0.12943515027E+03  0.12943515027E+03  0.00000000000E+00 0.  1.
      -24    2    1    2    0    0  0.00000000000E+00  0.00000000000E+00 -0.11658782796E+03  0.14228247259E+03  0.81557221492E+02 0.  0.
       11    1    3    3    0    0  0.17322635492E+02 -0.23767892995E+02 -0.90144959417E+01  0.30761137413E+02  0.00000000000E+00 0. -1.
      -12    1    3    3    0    0 -0.17322635492E+02  0.23767892995E+02 -0.10757333202E+03  0.11152133518E+03  0.00000000000E+00 0.  1.
</event>
<event>
 5   0  0.8936300E+00  0.8073005E+02  0.7957747E-01  0.1325614E+00
       -2   -1    0    0    0  501  0.00000000000E+00  0.00000000000E+00  0.87405962917E+02  0.87405962917E+02  0.00000000000E+00 0.  1.
        1   -1    0    0  501    0  0.00000000000E+00  0.00000000000E+00 -0.18641007700E+02  0.18641007700E+02  0.00000000000E+00 0. -1.
      -24    2    1    2    0    0  0.00000000000E+00  0.00000000000E+00  0.68764955216E+02  0.10604697062E+03  0.80730049617E+02 0.  0.
       11    1    3    3    0    0 -0.93219236658E+01  0.13505207988E+02 -0.14061511508E+02  0.21610530061E+02  0.00000000000E+00 0. -1.
      -12    1    3    3    0    0  0.93219236658E+01 -0.13505207988E+02  0.82826466725E+02  0.84436440556E+02  0.00000000000E+00 0.  1.
</event>
<event>
 5   0  0.8936300E+00  0.8126200E+02  0.7957747E-01  0.1324207E+00
        1   -1    0    0  501    0  0.00000000000E+00  0.00000000000E+00  0.33507587184E+02  0.33507587184E+02  0.00000000000E+00 0. -1.
       -2   -1    0    0    0  501  0.00000000000E+00  0.00000000000E+00 -0.49268785277E+02  0.49268785277E+02  0.00000000000E+00 0.  1.
      -24    2    1    2    0    0  0.00000000000E+00  0.00000000000E+00 -0.15761198093E+02  0.82776372462E+02  0.81261998945E+02 0.  0.
       11    1    3    3    0    0  0.16953617042E+02  0.20650933988E+02  0.23300169122E+02  0.35451150708E+02  0.00000000000E+00 0. -1.
      -12    1    3    3    0    0 -0.16953617042E+02 -0.20650933988E+02 -0.39061367215E+02  0.47325221754E+02  0.00000000000E+00 0.  1.
</event>
<event>
 5   0  0.8936300E+00  0.7265119E+02  0.7957747E-01  0.1348615E+00
        1   -1    0    0  501    0  0.00000000000E+00  0.00000000000E+00  0.85188863094E+01  0.85188863094E+01  0.00000000000E+00 0. -1.
       -2   -1    0    0    0  501  0.00000000000E+00  0.00000000000E+00 -0.15489686288E+03  0.15489686288E+03  0.00000000000E+00 0.  1.
      -24    2    1    2    0    0  0.00000000000E+00  0.00000000000E+00 -0.14637797657E+03  0.16341574919E+03  0.72651187589E+02 0.  0.
       11    1    3    3    0    0  0.26288018067E+02 -0.25069420652E+02 -0.72932340896E+02  0.81477985335E+02  0.00000000000E+00 0. -1.
      -12    1    3    3    0    0 -0.26288018067E+02  0.25069420652E+02 -0.73445635671E+02  0.81937763851E+02  0.00000000000E+00 0.  1.
</event>
<event>
 5   0  0.8936300E+00  0.8254877E+02  0.7957747E-01  0.1320854E+00
       -4   -1    0    0    0  501  0.00000000000E+00  0.00000000000E+00  0.51671853761E+01  0.51671853761E+01  0.00000000000E+00 0.  1.
        3   -1    0    0  501    0  0.00000000000E+00  0.00000000000E+00 -0.32969107115E+03  0.32969107115E+03  0.00000000000E+00 0. -1.
      -24    2    1    2    0    0  0.00000000000E+00  0.00000000000E+00 -0.32452388577E+03  0.33485825653E+03  0.82548770590E+02 0.  0.
       11    1    3    3    0    0 -0.36044736740E+02  0.13878588413E+02 -0.22128862721E+03  0.22463413542E+03  0.00000000000E+00 0. -1.
      -12    1    3    3    0    0  0.36044736740E+02 -0.13878588413E+02 -0.10323525856E+03  0.11022412110E+03  0.00000000000E+00 0.  1.
</event>
<event>
 5   0  0.8936300E+00  0.7909970E+02  0.7957747E-01  0.1330003E+00
        1   -1    0    0  501    0  0.00000000000E+00  0.00000000000E+00  0.40703877838E+01  0.40703877838E+01  0.00000000000E+00 0. -1.
       -2   -1    0    0    0  501  0.00000000000E+00  0.00000000000E+00 -0.38428538858E+03  0.38428538858E+03  0.00000000000E+00 0.  1.
      -24    2    1    2    0    0  0.00000000000E+00  0.00000000000E+00 -0.38021500080E+03  0.38835577636E+03  0.79099697880E+02 0.  0.
       11    1    3    3    0    0 -0.26570852411E+02  0.25037793969E+02 -0.11543982233E+03  0.12107540586E+03  0.00000000000E+00 0. -1.
      -12    1    3    3    0    0  0.26570852411E+02 -0.25037793969E+02 -0.26477517847E+03  0.26728037050E+03  0.00000000000E+00 0.  1.
</event>
<event>
 5   0  0.8936300E+00  0.7795704E+02  0.7957747E-01  0.1333151E+00
        1   -1    0    0  501    0  0.00000000000E+00  0.00000000000E+00  0.14582515309E+02  0.14582515309E+02  0.00000000000E+00 0. -1.
       -2   -1    0    0    0  501  0.00000000000E+00  0.00000000000E+00 -0.10418812362E+03  0.10418812362E+03  0.00000000000E+00 0.  1.
      -24    2    1    2    0    0  0.00000000000E+00  0.00000000000E+00 -0.89605608308E+02  0.11877063893E+03  0.77957037083E+02 0.  0.
       11    1    3    3    0    0 -0.18720440100E+02  0.14187138505E+02  0.25887122771E+01  0.23631149099E+02  0.00000000000E+00 0. -1.
      -12    1    3    3    0    0  0.18720440100E+02 -0.14187138505E+02 -0.92194320585E+02  0.95139489828E+02  0.00000000000E+00 0.  1.
</event>
<event>
 5   0  0.8936300E+00  0.7563232E+02  0.7957747E-01  0.1339749E+00
        1   -1    0    0  501    0  0.00000000000E+00  0.00000000000E+00  0.40770472657E+01  0.40770472657E+01  0.00000000000E+00 0. -1.
       -2   -1    0    0    0  501  0.00000000000E+00  0.00000000000E+00 -0.35075920295E+03  0.35075920295E+03  0.00000000000E+00 0.  1.
      -24    2    1    2    0    0  0.00000000000E+00  0.00000000000E+00 -0.34668215568E+03  0.35483625022E+03  0.75632317149E+02 0.  0.
       11    1    3    3    0    0  0.33124561476E+02 -0.18151940631E+02 -0.16477672751E+03  0.16905058252E+03  0.00000000000E+00 0. -1.
      -12    1    3    3    0    0 -0.33124561476E+02  0.18151940631E+02 -0.18190542818E+03  0.18578566770E+03  0.00000000000E+00 0.  1.
</event>
<event>
 5   0  0.8936300E+00  0.8008088E+02  0.7957747E-01  0.1327348E+00
        1   -1    0    0  501    0  0.00000000000E+00  0.00000000000E+00  0.94103890465E+01  0.94103890465E+01  0.00000000000E+00 0. -1.
       -2   -1    0    0    0  501  0.00000000000E+00  0.00000000000E+00 -0.17036881916E+03  0.17036881916E+03  0.00000000000E+00 0.  1.
      -24    2    1    2    0    0  0.00000000000E+00  0.00000000000E+00 -0.16095843011E+03  0.17977920820E+03  0.80080880856E+02 0.  0.
       11    1    3    3    0    0  0.24806527667E+02  0.43761010224E+00 -0.99256289757E+01  0.26722152384E+02  0.00000000000E+00 0. -1.
      -12    1    3    3    0    0 -0.24806527667E+02 -0.43761010224E+00 -0.15103280114E+03  0.15305705582E+03  0.00000000000E+00 0.  1.
</event>
<event>
 5   0  0.8936300E+00  0.8072652E+02  0.7957747E-01  0.1325623E+00
        1   -1    0    0  501    0  0.00000000000E+00  0.00000000000E+00  0.82909181172E+02  0.82909181172E+02  0.00000000000E+00 0. -1.
       -2   -1    0    0    0  501  0.00000000000E+00  0.00000000000E+00 -0.19650327962E+02  0.19650327962E+02  0.00000000000E+00 0.  1.
      -24    2    1    2    0    0  0.00000000000E+00  0.00000000000E+00  0.63258853209E+02  0.10255950913E+03  0.80726516118E+02 0.  0.
       11    1    3    3    0    0 -0.21225639400E+01 -0.27992428637E+02  0.68475095701E+02  0.74006216428E+02  0.00000000000E+00 0. -1.
      -12    1    3    3    0    0  0.21225639400E+01  0.27992428637E+02 -0.52162424915E+01  0.28553292707E+02  0.00000000000E+00 0.  1.
</event>
<event>
 5   0  0.8936300E+00  0.9128679E+02  0.7957747E-01  0.1299777E+00
        1   -1    0    0  501    0  0.00000000000E+00  0.00000000000E+00  0.22080553443E+02  0.22080553443E+02  0.00000000000E+00 0. -1.
       -2   -1    0    0    0  501  0.00000000000E+00  0.00000000000E+00 -0.94350863464E+02  0.94350863464E+02  0.00000000000E+00 0.  1.
      -24    2    1    2    0    0  0.00000000000E+00  0.00000000000E+00 -0.72270310021E+02  0.11643141691E+03  0.91286785092E+02 0.  0.
       11    1    3    3    0    0 -0.12287923529E+02 -0.14643858524E+02  0.16728737741E+02  0.25402486562E+02  0.00000000000E+00 0. -1.
      -12    1    3    3    0    0  0.12287923529E+02  0.14643858524E+02 -0.88999047763E+02  0.91028930345E+02  0.00000000000E+00 0.  1.
</event>
<event>
 5   0  0.8936300E+00  0.8076116E+02  0.7957747E-01  0.1325531E+00
        1   -1    0    0  501    0  0.00000000000E+00  0.00000000000E+00  0.63314045040E+01  0.63314045040E+01  0.00000000000E+00 0. -1.
       -2   -1    0    0    0  501  0.00000000000E+00  0.00000000000E+00 -0.25754024053E+03  0.25754024053E+03  0.00000000000E+00 0.  1.
      -24    2    1    2    0    0  0.00000000000E+00  0.00000000000E+00 -0.25120883603E+03  0.26387164503E+03  0.80761164896E+02 0.  0.
       11    1    3    3    0    0  0.23489652165E+02 -0.12415926336E+02 -0.26250703202E+02  0.37349945170E+02  0.00000000000E+00 0. -1.
      -12    1    3    3    0    0 -0.23489652165E+02  0.12415926336E+02 -0.22495813282E+03  0.22652169986E+03  0.00000000000E+00 0.  1.
</event>
<event>
 5   0  0.8936300E+00  0.8018956E+02  0.7957747E-01  0.1327056E+00
       -2   -1    0    0    0  501  0.00000000000E+00  0.00000000000E+00  0.40278405061E+02  0.40278405061E+02  0.00000000000E+00 0.  1.
        1   -1    0    0  501    0  0.00000000000E+00  0.00000000000E+00 -0.39911992361E+02  0.39911992361E+02  0.00000000000E+00 0. -1.
      -24    2    1    2    0    0  0.00000000000E+00  0.00000000000E+00  0.36641270032E+00  0.80190397421E+02  0.80189560295E+02 0.  0.
       11    1    3    3    0    0  0.19678658919E+02 -0.33050097261E+02 -0.11132071924E+02  0.40043495991E+02  0.00000000000E+00 0. -1.
      -12    1    3    3    0    0 -0.19678658919E+02  0.33050097261E+02  0.11498484625E+02  0.40146901431E+02  0.00000000000E+00 0.  1.
</event>
<event>
 5   0  0.8936300E+00  0.8150483E+02  0.7957747E-01  0.1323569E+00
        1   -1    0    0  501    0  0.00000000000E+00  0.00000000000E+00  0.75096843990E+01  0.75096843990E+01  0.00000000000E+00 0. -1.
       -2   -1    0    0    0  501  0.00000000000E+00  0.00000000000E+00 -0.22114902953E+03  0.22114902953E+03  0.00000000000E+00 0.  1.
      -24    2    1    2    0    0  0.00000000000E+00  0.00000000000E+00 -0.21363934513E+03  0.22865871393E+03  0.81504832174E+02 0.  0.
       11    1    3    3    0    0  0.37582384163E+01  0.18376593803E+02 -0.53202475170E+01  0.19496886660E+02  0.00000000000E+00 0. -1.
      -12    1    3    3    0    0 -0.37582384163E+01 -0.18376593803E+02 -0.20831909762E+03  0.20916182727E+03  0.00000000000E+00 0.  1.
</event>
<event>
 5   0  0.8936300E+00  0.7968626E+02  0.7957747E-01  0.1328410E+00
        3   -1    0    0  501    0  0.00000000000E+00  0.00000000000E+00  0.21940921274E+03  0.21940921274E+03  0.00000000000E+00 0. -1.
       -4   -1    0    0    0  501  0.00000000000E+00  0.00000000000E+00 -0.72352250902E+01  0.72352250902E+01  0.00000000000E+00 0.  1.
      -24    2    1    2    0    0  0.00000000000E+00  0.00000000000E+00  0.21217398765E+03  0.22664443784E+03  0.79686260825E+02 0.  0.
       11    1    3    3    0    0  0.36350431629E+02  0.71624554790E+01  0.14777387171E+03  0.15234753628E+03  0.00000000000E+00 0. -1.
      -12    1    3    3    0    0 -0.36350431629E+02 -0.71624554790E+01  0.64400115940E+02  0.74296901558E+02  0.00000000000E+00 0.  1.
</event>
<event>
 5   0  0.8936300E+00  0.8117059E+02  0.7957747E-01  0.1324448E+00
        1   -1    0    0  501    0  0.00000000000E+00  0.00000000000E+00  0.13759664180E+03  0.13759664180E+03  0.00000000000E+00 0. -1.
       -2   -1    0    0    0  501  0.00000000000E+00  0.00000000000E+00 -0.11970976894E+02  0.11970976894E+02  0.00000000000E+00 0.  1.
      -24    2    1    2    0    0  0.00000000000E+00  0.00000000000E+00  0.12562566491E+03  0.14956761870E+03  0.81170591218E+02 0.  0.
       11    1    3    3    0    0  0.10913628978E+02 -0.31536142494E+02  0.10537449188E+03  0.11053243470E+03  0.00000000000E+00 0. -1.
      -12    1    3    3    0    0 -0.10913628978E+02  0.31536142494E+02  0.20251173028E+02  0.39035183999E+02  0.00000000000E+00 0.  1.
</event>
<event>
 5   0  0.8936300E+00  0.8097873E+02  0.7957747E-01  0.1324955E+00
        1   -1    0    0  501    0  0.00000000000E+00  0.00000000000E+00  0.10250687315E+03  0.10250687315E+03  0.00000000000E+00 0. -1.
       -2   -1    0    0    0  501  0.00000000000E+00  0.00000000000E+00 -0.15992964389E+02  0.15992964389E+02  0.00000000000E+00 0.  1.
      -24    2    1    2    0    0  0.00000000000E+00  0.00000000000E+00  0.86513908759E+02  0.11849983754E+03  0.80978732317E+02 0.  0.
       11    1    3    3    0    0  0.13950903446E+02  0.32183688293E+02  0.72850239792E+02  0.80855271546E+02  0.00000000000E+00 0. -1.
      -12    1    3    3    0    0 -0.13950903446E+02 -0.32183688293E+02  0.13663668968E+02  0.37644565992E+02  0.00000000000E+00 0.  1.
</event>
<event>
 5   0  0.8936300E+00  0.8012604E+02  0.7957747E-01  0.1327226E+00
        1   -1    0    0  501    0  0.00000000000E+00  0.00000000000E+00  0.44779393770E+01  0.44779393770E+01  0.00000000000E+00 0. -1.
       -2   -1    0    0    0  501  0.00000000000E+00  0.00000000000E+00 -0.35843398389E+03  0.35843398389E+03  0.00000000000E+00 0.  1.
      -24    2    1    2    0    0  0.00000000000E+00  0.00000000000E+00 -0.35395604452E+03  0.36291192327E+03  0.80126041972E+02 0.  0.
       11    1    3    3    0    0 -0.89892479019E+01  0.20619096420E+02 -0.26821376827E+02  0.35004856376E+02  0.00000000000E+00 0. -1.
      -12    1    3    3    0    0  0.89892479019E+01 -0.20619096420E+02 -0.32713466769E+03  0.32790706689E+03  0.00000000000E+00 0.  1.
</event>
<event>
 5   0  0.8936300E+00  0.8042445E+02  0.7957747E-01  0.1326428E+00
       -2   -1    0    0    0  501  0.00000000000E+00  0.00000000000E+00  0.14179995656E+03  0.14179995656E+03  0.00000000000E+00 0.  1.
        1   -1    0    0  501    0  0.00000000000E+00  0.00000000000E+00 -0.11403549700E+02  0.11403549700E+02  0.00000000000E+00 0. -1.
      -24    2    1    2    0    0  0.00000000000E+00  0.00000000000E+00  0.13039640686E+03  0.15320350626E+03  0.80424445340E+02 0.  0.
       11    1    3    3    0    0 -0.19099344563E+02 -0.12860714536E+02  0.23976574442E+01  0.23150198754E+02  0.00000000000E+00 0. -1.
      -12    1    3    3    0    0  0.19099344563E+02  0.12860714536E+02  0.12799874942E+03  0.13005330751E+03  0.00000000000E+00 0.  1.
</event>
<event>
 5   0  0.8936300E+00  0.7997583E+02  0.7957747E-01  0.1327630E+00
        1   -1    0    0  501    0  0.00000000000E+00  0.00000000000E+00  0.20498898678E+02  0.20498898678E+02  0.00000000000E+00 0. -1.
       -2   -1    0    0    0  501  0.00000000000E+00  0.00000000000E+00 -0.78005821301E+02  0.78005821301E+02  0.00000000000E+00 0.  1.
      -24    2    1    2    0    0  0.00000000000E+00  0.00000000000E+00 -0.57506922623E+02  0.98504719978E+02  0.79975832027E+02 0.  0.
       11    1    3    3    0    0 -0.36518766493E+02  0.14508456541E+02 -0.37881025121E+02  0.54581019427E+02  0.00000000000E+00 0. -1.
      -12    1    3    3    0    0  0.36518766493E+02 -0.14508456541E+02 -0.19625897502E+02  0.43923700552E+02  0.00000000000E+00 0.  1.
</event>
<event>
 5   0  0.8936300E+00  0.8072108E+02  0.7957747E-01  0.1325638E+00
        1   -1    0    0  501    0  0.00000000000E+00  0.00000000000E+00  0.24639375403E+02  0.24639375403E+02  0.00000000000E+00 0. -1.
       -2   -1    0    0    0  501  0.00000000000E+00  0.00000000000E+00 -0.66112595720E+02  0.66112595720E+02  0.00000000000E+00 0.  1.
      -24    2    1    2    0    0  0.00000000000E+00  0.00000000000E+00 -0.41473220318E+02  0.90751971123E+02  0.80721076920E+02 0.  0.
       11    1    3    3    0    0 -0.32013271097E+02  0.21194632893E+02 -0.34729594664E+02  0.51770713104E+02  0.00000000000E+00 0. -1.
      -12    1    3    3    0    0  0.32013271097E+02 -0.21194632893E+02 -0.67436256537E+01  0.38981258019E+02  0.00000000000E+00 0.  1.
</event>
<event>
 5   0  0.8936300E+00  0.8309948E+02  0.7957747E-01  0.1319440E+00
        1   -1    0    0  501    0  0.00000000000E+00  0.00000000000E+00  0.16282272419E+02  0.16282272419E+02  0.00000000000E+00 0. -1.
       -2   -1    0    0    0  501  0.00000000000E+00  0.00000000000E+00 -0.10602824460E+03  0.10602824460E+03  0.00000000000E+00 0.  1.
      -24    2    1    2    0    0  0.00000000000E+00  0.00000000000E+00 -0.89745972177E+02  0.12231051701E+03  0.83099476836E+02 0.  0.
       11    1    3    3    0    0 -0.53215533906E+00 -0.24761167757E+02  0.42301930336E+01  0.25125547777E+02  0.00000000000E+00 0. -1.
      -12    1    3    3    0    0  0.53215533906E+00  0.24761167757E+02 -0.93976165211E+02  0.97184969238E+02  0.00000000000E+00 0.  1.
</event>
<event>
 5   0  0.8936300E+00  0.7920359E+02  0.7957747E-01  0.1329720E+00
        1   -1    0    0  501    0  0.00000000000E+00  0.00000000000E+00  0.60922399158E+02  0.60922399158E+02  0.00000000000E+00 0. -1.
       -2   -1    0    0    0  501  0.00000000000E+00  0.00000000000E+00 -0.25742619878E+02  0.25742619878E+02  0.00000000000E+00 0.  1.
      -24    2    1    2    0    0  0.00000000000E+00  0.00000000000E+00  0.35179779281E+02  0.86665019036E+02  0.79203589908E+02 0.  0.
       11    1    3    3    0    0 -0.87935973995E+01  0.82488178941E+01  0.58865263406E+02  0.60087349648E+02  0.00000000000E+00 0. -1.
      -12    1    3    3    0    0  0.87935973995E+01 -0.82488178941E+01 -0.23685484125E+02  0.26577669388E+02  0.00000000000E+00 0.  1.
</event>
<event>
 5   0  0.8936300E+00  0.7725603E+02  0.7957747E-01  0.1335113E+00
        1   -1    0    0  501    0  0.00000000000E+00  0.00000000000E+00  0.36759817950E+02  0.36759817950E+02  0.00000000000E+00 0. -1.
       -2   -1    0    0    0  501  0.00000000000E+00  0.00000000000E+00 -0.40591153172E+02  0.40591153172E+02  0.00000000000E+00 0.  1.
      -24    2    1    2    0    0  0.00000000000E+00  0.00000000000E+00 -0.38313352214E+01  0.77350971122E+02  0.77256026327E+02 0.  0.
       11    1    3    3    0    0 -0.31031055470E+02  0.86856069701E+01  0.19412089325E+02  0.37619082711E+02  0.00000000000E+00 0. -1.
      -12    1    3    3    0    0  0.31031055470E+02 -0.86856069701E+01 -0.23243424546E+02  0.39731888411E+02  0.00000000000E+00 0.  1.
</event>
<event>
 5   0  0.8936300E+00  0.7673917E+02  0.7957747E-01  0.1336575E+00
        1   -1    0    0  501    0  0.00000000000E+00  0.00000000000E+00  0.20205318375E+03  0.20205318375E+03  0.00000000000E+00 0. -1.
       -2   -1    0    0    0  501  0.00000000000E+00  0.00000000000E+00 -0.72863235878E+01  0.72863235878E+01  0.00000000000E+00 0.  1.
      -24    2    1    2    0    0  0.00000000000E+00  0.00000000000E+00  0.19476686016E+03  0.20933950734E+03  0.76739165457E+02 0.  0.
       11    1    3    3    0    0  0.37591449483E+02  0.19271562641E+01  0.77080206725E+02  0.85779888519E+02  0.00000000000E+00 0. -1.
      -12    1    3    3    0    0 -0.37591449483E+02 -0.19271562641E+01  0.11768665344E+03  0.12355961882E+03  0.00000000000E+00 0.  1.
</event>
<event>
 5   0  0.8936300E+00  0.8190675E+02  0.7957747E-01  0.1322519E+00
        1   -1    0    0  501    0  0.00000000000E+00  0.00000000000E+00  0.59351852769E+01  0.59351852769E+01  0.00000000000E+00 0. -1.
       -2   -1    0    0    0  501  0.00000000000E+00  0.00000000000E+00 -0.28258241649E+03  0.28258241649E+03  0.00000000000E+00 0.  1.
      -24    2    1    2    0    0  0.00000000000E+00  0.00000000000E+00 -0.27664723121E+03  0.28851760176E+03  0.81906751806E+02 0.  0.
       11    1    3    3    0    0 -0.25155066011E+02 -0.26302764135E+01 -0.24863514269E+02  0.35466745577E+02  0.00000000000E+00 0. -1.
      -12    1    3    3    0    0  0.25155066011E+02  0.26302764135E+01 -0.25178371694E+03  0.25305085619E+03  0.00000000000E+00 0.  1.
</event>
<event>
 5   0  0.8936300E+00  0.8025068E+02  0.7957747E-01  0.1326892E+00
        1   -1    0    0  501    0  0.00000000000E+00  0.00000000000E+00  0.55909262161E+02  0.55909262161E+02  0.00000000000E+00 0. -1.
       -2   -1    0    0    0  501  0.00000000000E+00  0.00000000000E+00 -0.28797427343E+02  0.28797427343E+02  0.00000000000E+00 0.  1.
      -24    2    1    2    0    0  0.00000000000E+00  0.00000000000E+00  0.27111834818E+02  0.84706689505E+02  0.80250680119E+02 0.  0.
       11    1    3    3    0    0 -0.37097386795E+02 -0.77674969592E+01  0.27458955543E+02  0.46803251549E+02  0.00000000000E+00 0. -1.
      -12    1    3    3    0    0  0.37097386795E+02  0.77674969592E+01 -0.34712072461E+00  0.37903437956E+02  0.00000000000E+00 0.  1.
</event>
<event>
 5   0  0.8936300E+00  0.8169933E+02  0.7957747E-01  0.1323060E+00
        1   -1    0    0  501    0  0.00000000000E+00  0.00000000000E+00  0.88373591462E+01  0.88373591462E+01  0.00000000000E+00 0. -1.
       -2   -1    0    0    0  501  0.00000000000E+00  0.00000000000E+00 -0.18882281929E+03  0.18882281929E+03  0.00000000000E+00 0.  1.
      -24    2    1    2    0    0  0.00000000000E+00  0.00000000000E+00 -0.17998546014E+03  0.19766017843E+03  0.81699328492E+02 0.  0.
       11    1    3    3    0    0  0.25251470474E+01 -0.14154252503E+02  0.25134597827E+01  0.14595777184E+02  0.00000000000E+00 0. -1.
      -12    1    3    3    0    0 -0.25251470474E+01  0.14154252503E+02 -0.18249891992E+03  0.18306440125E+03  0.00000000000E+00 0.  1.
</event>
<event>
 5   0  0.8936300E+00  0.8050413E+02  0.7957747E-01  0.1326215E+00
        1   -1    0    0  501    0  0.00000000000E+00  0.00000000000E+00  0.19186527398E+03  0.19186527398E+03  0.00000000000E+00 0. -1.
       -2   -1    0    0    0  501  0.00000000000E+00  0.00000000000E+00 -0.84446169335E+01  0.84446169335E+01  0.00000000000E+00 0.  1.
      -24    2    1    2    0    0  0.00000000000E+00  0.00000000000E+00  0.18342065704E+03  0.20030989091E+03  0.80504130119E+02 0.  0.
       11    1    3    3    0    0 -0.28388649792E+02 -0.14866596559E+01  0.16261744582E+03  0.16508349185E+03  0.00000000000E+00 0. -1.
      -12    1    3    3    0    0  0.28388649792E+02  0.14866596559E+01  0.20803211218E+02  0.35226399062E+02  0.00000000000E+00 0.  1.
</event>
<event>
 5   0  0.8936300E+00  0.8041019E+02  0.7957747E-01  0.1326466E+00
        1   -1    0    0  501    0  0.00000000000E+00  0.00000000000E+00  0.33222223170E+02  0.33222223170E+02  0.00000000000E+00 0. -1.
       -2   -1    0    0    0  501  0.00000000000E+00  0.00000000000E+00 -0.48655675748E+02  0.48655675748E+02  0.00000000000E+00 0.  1.
      -24    2    1    2    0    0  0.00000000000E+00  0.00000000000E+00 -0.15433452578E+02  0.81877898918E+02  0.80410191349E+02 0.  0.
       11    1    3    3    0    0  0.28470375495E+02  0.24371005347E+02  0.71072131651E+01  0.38144733076E+02  0.00000000000E+00 0. -1.
      -12    1    3    3    0    0 -0.28470375495E+02 -0.24371005347E+02 -0.22540665743E+02  0.43733165842E+02  0.00000000000E+00 0.  1.
</event>
<event>
 5   0  0.8936300E+00  0.7987777E+02  0.7957747E-01  0.1327894E+00
        1   -1    0    0  501    0  0.00000000000E+00  0.00000000000E+00  0.33535294257E+02  0.33535294257E+02  0.00000000000E+00 0. -1.
       -2   -1    0    0    0  501  0.00000000000E+00  0.00000000000E+00 -0.47565244915E+02  0.47565244915E+02  0.00000000000E+00 0.  1.
      -24    2    1    2    0    0  0.00000000000E+00  0.00000000000E+00 -0.14029950658E+02  0.81100539171E+02  0.79877768737E+02 0.  0.
       11    1    3    3    0    0  0.93221086199E+01 -0.37407346049E+02  0.35804455048E+01  0.38717319608E+02  0.00000000000E+00 0. -1.
      -12    1    3    3    0    0 -0.93221086199E+01  0.37407346049E+02 -0.17610396163E+02  0.42383219564E+02  0.00000000000E+00 0.  1.
</event>
<event>
 5   0  0.8936300E+00  0.7984218E+02  0.7957747E-01  0.1327990E+00
       -2   -1    0    0    0  501  0.00000000000E+00  0.00000000000E+00  0.19067930699E+03  0.19067930699E+03  0.00000000000E+00 0.  1.
        1   -1    0    0  501    0  0.00000000000E+00  0.00000000000E+00 -0.83579777352E+01  0.83579777352E+01  0.00000000000E+00 0. -1.
      -24    2    1    2    0    0  0.00000000000E+00  0.00000000000E+00  0.18232132926E+03  0.19903728473E+03  0.79842179389E+02 0.  0.
       11    1    3    3    0    0 -0.14357891110E+02  0.32803699267E+02  0.47165558868E+02  0.59218423367E+02  0.00000000000E+00 0. -1.
      -12    1    3    3    0    0  0.14357891110E+02 -0.32803699267E+02  0.13515577039E+03  0.13981886136E+03  0.00000000000E+00 0.  1.
</event>
<event>
 5   0  0.8936300E+00  0.7853473E+02  0.7957747E-01  0.1331552E+00
        1   -1    0    0  501    0  0.00000000000E+00  0.00000000000E+00  0.15894848166E+02  0.15894848166E+02  0.00000000000E+00 0. -1.
       -2   -1    0    0    0  501  0.00000000000E+00  0.00000000000E+00 -0.97007905106E+02  0.97007905106E+02  0.00000000000E+00 0.  1.
      -24    2    1    2    0    0  0.00000000000E+00  0.00000000000E+00 -0.81113056941E+02  0.11290275327E+03  0.78534729197E+02 0.  0.
       11    1    3    3    0    0  0.32845160575E+02  0.21327816057E+02 -0.44684666574E+02  0.59417167029E+02  0.00000000000E+00 0. -1.
      -12    1    3    3    0    0 -0.32845160575E+02 -0.21327816057E+02 -0.36428390366E+02  0.53485586242E+02  0.00000000000E+00 0.  1.
</event>
<event>
 5   0  0.8936300E+00  0.7908534E+02  0.7957747E-01  0.1330042E+00
        1   -1    0    0  501    0  0.00000000000E+00  0.00000000000E+00  0.19286883225E+02  0.19286883225E+02  0.00000000000E+00 0. -1.
       -2   -1    0    0    0  501  0.00000000000E+00  0.00000000000E+00 -0.81071824885E+02  0.81071824885E+02  0.00000000000E+00 0.  1.
      -24    2    1    2    0    0  0.00000000000E+00  0.00000000000E+00 -0.61784941661E+02  0.10035870811E+03  0.79085341736E+02 0.  0.
       11    1    3    3    0    0  0.24900439589E+02  0.66102984153E+01  0.71750818646E+01  0.26743405479E+02  0.00000000000E+00 0. -1.
      -12    1    3    3    0    0 -0.24900439589E+02 -0.66102984153E+01 -0.68960023525E+02  0.73615302631E+02  0.00000000000E+00 0.  1.
</event>
<event>
 5   0  0.8936300E+00  0.7501530E+02  0.7957747E-01  0.1341546E+00
        1   -1    0    0  501    0  0.00000000000E+00  0.00000000000E+00  0.11057529466E+02  0.11057529466E+02  0.00000000000E+00 0. -1.
       -2   -1    0    0    0  501  0.00000000000E+00  0.00000000000E+00 -0.12722766870E+03  0.12722766870E+03  0.00000000000E+00 0.  1.
      -24    2    1    2    0    0  0.00000000000E+00  0.00000000000E+00 -0.11617013923E+03  0.13828519816E+03  0.75015296987E+02 0.  0.
       11    1    3    3    0    0  0.36430393406E+02  0.64083763572E+01 -0.46634608310E+02  0.59523336125E+02  0.00000000000E+00 0. -1.
      -12    1    3    3    0    0 -0.36430393406E+02 -0.64083763572E+01 -0.69535530919E+02  0.78761862036E+02  0.00000000000E+00 0.  1.
</event>
<event>
 5   0  0.8936300E+00  0.8132447E+02  0.7957747E-01  0.1324043E+00
        1   -1    0    0  501    0  0.00000000000E+00  0.00000000000E+00  0.62644041861E+01  0.62644041861E+01  0.00000000000E+00 0. -1.
       -2   -1    0    0    0  501  0.00000000000E+00  0.00000000000E+00 -0.26393845775E+03  0.26393845775E+03  0.00000000000E+00 0.  1.
      -24    2    1    2    0    0  0.00000000000E+00  0.00000000000E+00 -0.25767405357E+03  0.27020286194E+03  0.81324465682E+02 0.  0.
       11    1    3    3    0    0  0.12972325889E+02 -0.36398969212E+02 -0.86777045558E+02  0.94991693502E+02  0.00000000000E+00 0. -1.
      -12    1    3    3    0    0 -0.12972325889E+02  0.36398969212E+02 -0.17089700801E+03  0.17521116844E+03  0.00000000000E+00 0.  1.
</event>
<event>
 5   0  0.8936300E+00  0.8176950E+02  0.7957747E-01  0.1322877E+00
        1   -1    0    0  501    0  0.00000000000E+00  0.00000000000E+00  0.22976524741E+02  0.22976524741E+02  0.00000000000E+00 0. -1.
       -2   -1    0    0    0  501  0.00000000000E+00  0.00000000000E+00 -0.72750896219E+02  0.72750896219E+02  0.00000000000E+00 0.  1.
      -24    2    1    2    0    0  0.00000000000E+00  0.00000000000E+00 -0.49774371478E+02  0.95727420959E+02  0.81769499616E+02 0.  0.
       11    1    3    3    0    0 -0.18943653154E+02  0.21181413743E+02  0.95251439204E+01  0.29970696516E+02  0.00000000000E+00 0. -1.
      -12    1    3    3    0    0  0.18943653154E+02 -0.21181413743E+02 -0.59299515399E+02  0.65756724443E+02  0.00000000000E+00 0.  1.
</event>
<event>
 5   0  0.8936300E+00  0.8291994E+02  0.7957747E-01  0.1319900E+00
        1   -1    0    0  501    0  0.00000000000E+00  0.00000000000E+00  0.46885604169E+01  0.46885604169E+01  0.00000000000E+00 0. -1.
       -2   -1    0    0    0  501  0.00000000000E+00  0.00000000000E+00 -0.36662191207E+03  0.36662191207E+03  0.00000000000E+00 0.  1.
      -24    2    1    2    0    0  0.00000000000E+00  0.00000000000E+00 -0.36193335165E+03  0.37131047249E+03  0.82919936925E+02 0.  0.
       11    1    3    3    0    0 -0.23192681489E+02 -0.72218123875E+00 -0.27111357891E+02  0.35685399634E+02  0.00000000000E+00 0. -1.
      -12    1    3    3    0    0  0.23192681489E+02  0.72218123875E+00 -0.33482199376E+03  0.33562507285E+03  0.00000000000E+00 0.  1.
</event>
<event>
 5   0  0.8936300E+00  0.9799083E+02  0.7957747E-01  0.1285330E+00
        1   -1    0    0  501    0  0.00000000000E+00  0.00000000000E+00  0.10344385717E+02  0.10344385717E+02  0.00000000000E+00 0. -1.
       -2   -1    0    0    0  501  0.00000000000E+00  0.00000000000E+00 -0.23206314386E+03  0.23206314386E+03  0.00000000000E+00 0.  1.
      -24    2    1    2    0    0  0.00000000000E+00  0.00000000000E+00 -0.22171875814E+03  0.24240752957E+03  0.97990829586E+02 0.  0.
       11    1    3    3    0    0 -0.13102646464E+00  0.44202132354E+02 -0.58575105654E+02  0.73381800707E+02  0.00000000000E+00 0. -1.
      -12    1    3    3    0    0  0.13102646464E+00 -0.44202132354E+02 -0.16314365249E+03  0.16902572887E+03  0.00000000000E+00 0.  1.
</event>
<event>
 5   0  0.8936300E+00  0.7912272E+02  0.7957747E-01  0.1329940E+00
        3   -1    0    0  501    0  0.00000000000E+00  0.00000000000E+00  0.11956508356E+03  0.11956508356E+03  0.00000000000E+00 0. -1.
       -4   -1    0    0    0  501  0.00000000000E+00  0.00000000000E+00 -0.13089951003E+02  0.13089951003E+02  0.00000000000E+00 0.  1.
      -24    2    1    2    0    0  0.00000000000E+00  0.00000000000E+00  0.10647513256E+03  0.13265503456E+03  0.79122716977E+02 0.  0.
       11    1    3    3    0    0  0.31835863589E+02  0.23457157348E+02  0.55178806618E+02  0.67885647534E+02  0.00000000000E+00 0. -1.
      -12    1    3    3    0    0 -0.31835863589E+02 -0.23457157348E+02  0.51296325939E+02  0.64769387029E+02  0.00000000000E+00 0.  1.
</event>
<event>
 5   0  0.8936300E+00  0.7994763E+02  0.7957747E-01  0.1327706E+00
       -2   -1    0    0    0  501  0.00000000000E+00  0.00000000000E+00  0.13378907259E+03  0.13378907259E+03  0.00000000000E+00 0.  1.
        1   -1    0    0  501    0  0.00000000000E+00  0.00000000000E+00 -0.11943472194E+02  0.11943472194E+02  0.00000000000E+00 0. -1.
      -24    2    1    2    0    0  0.00000000000E+00  0.00000000000E+00  0.12184560040E+03  0.14573254479E+03  0.79947634572E+02 0.  0.
       11    1    3    3    0    0  0.48529312595E+01  0.18342065260E+02 -0.32126105886E+01  0.19243262889E+02  0.00000000000E+00 0. -1.
      -12    1    3    3    0    0 -0.48529312595E+01 -0.18342065260E+02  0.12505821099E+03  0.12648928190E+03  0.00000000000E+00 0.  1.
</event>
<event>
 5   0  0.8936300E+00  0.7636734E+02  0.7957747E-01  0.1337634E+00
        1   -1    0    0  501    0  0.00000000000E+00  0.00000000000E+00  0.23634738982E+02  0.23634738982E+02  0.00000000000E+00 0. -1.
       -2   -1    0    0    0  501  0.00000000000E+00  0.00000000000E+00 -0.61688549309E+02  0.61688549309E+02  0.00000000000E+00 0.  1.
      -24    2    1    2    0    0  0.00000000000E+00  0.00000000000E+00 -0.38053810326E+02  0.85323288291E+02  0.76367342788E+02 0.  0.
       11    1    3    3    0    0  0.25367531902E+02  0.55602083888E+01  0.12248105482E+02  0.28713127312E+02  0.00000000000E+00 0. -1.
      -12    1    3    3    0    0 -0.25367531902E+02 -0.55602083888E+01 -0.50301915808E+02  0.56610160979E+02  0.00000000000E+00 0.  1.
</event>
<event>
 5   0  0.8936300E+00  0.8309540E+02  0.7957747E-01  0.1319451E+00
        1   -1    0    0  501    0  0.00000000000E+00  0.00000000000E+00  0.24026752386E+02  0.24026752386E+02  0.00000000000E+00 0. -1.
       -2   -1    0    0    0  501  0.00000000000E+00  0.00000000000E+00 -0.71845384292E+02  0.71845384292E+02  0.00000000000E+00 0.  1.
      -24    2    1    2    0    0  0.00000000000E+00  0.00000000000E+00 -0.47818631906E+02  0.95872136678E+02  0.83095397189E+02 0.  0.
       11    1    3    3    0    0 -0.34347339653E+02 -0.94774670065E+00  0.30396428102E+01  0.34494599483E+02  0.00000000000E+00 0. -1.
      -12    1    3    3    0    0  0.34347339653E+02  0.94774670065E+00 -0.50858274716E+02  0.61377537195E+02  0.00000000000E+00 0.  1.
</event>
<event>
 5   0  0.8936300E+00  0.7513474E+02  0.7957747E-01  0.1341196E+00
       -2   -1    0    0    0  501  0.00000000000E+00  0.00000000000E+00  0.85513739837E+01  0.85513739837E+01  0.00000000000E+00 0.  1.
        1   -1    0    0  501    0  0.00000000000E+00  0.00000000000E+00 -0.16503864529E+03  0.16503864529E+03  0.00000000000E+00 0. -1.
      -24    2    1    2    0    0  0.00000000000E+00  0.00000000000E+00 -0.15648727130E+03  0.17359001927E+03  0.75134737042E+02 0.  0.
       11    1    3    3    0    0 -0.24064256811E+02 -0.28808187809E+02 -0.74734410335E+02  0.83631526525E+02  0.00000000000E+00 0. -1.
      -12    1    3    3    0    0  0.24064256811E+02  0.28808187809E+02 -0.81752860968E+02  0.89958492746E+02  0.00000000000E+00 0.  1.
</event>
<event>
 5   0  0.8936300E+00  0.7974514E+02  0.7957747E-01  0.1328251E+00
        1   -1    0    0  501    0  0.00000000000E+00  0.00000000000E+00  0.89642650849E+01  0.89642650849E+01  0.00000000000E+00 0. -1.
       -2   -1    0    0    0  501  0.00000000000E+00  0.00000000000E+00 -0.17735105257E+03  0.17735105257E+03  0.00000000000E+00 0.  1.
      -24    2    1    2    0    0  0.00000000000E+00  0.00000000000E+00 -0.16838678749E+03  0.18631531766E+03  0.79745140249E+02 0.  0.
       11    1    3    3    0    0 -0.32350442955E+01 -0.27103641860E+02 -0.16287391812E+02  0.31786035388E+02  0.00000000000E+00 0. -1.
      -12    1    3    3    0    0  0.32350442955E+01  0.27103641860E+02 -0.15209939567E+03  0.15452928227E+03  0.00000000000E+00 0.  1.
</event>
<event>
 5   0  0.8936300E+00  0.8000045E+02  0.7957747E-01  0.1327564E+00
        1   -1    0    0  501    0  0.00000000000E+00  0.00000000000E+00  0.90129902790E+01  0.90129902790E+01  0.00000000000E+00 0. -1.
       -2   -1    0    0    0  501  0.00000000000E+00  0.00000000000E+00 -0.17752354541E+03  0.17752354541E+03  0.00000000000E+00 0.  1.
      -24    2    1    2    0    0  0.00000000000E+00  0.00000000000E+00 -0.16851055513E+03  0.18653653569E+03  0.80000449725E+02 0.  0.
       11    1    3    3    0    0  0.17669783469E+02  0.35152015791E+02 -0.10109077167E+03  0.10847686196E+03  0.00000000000E+00 0. -1.
      -12    1    3    3    0    0 -0.17669783469E+02 -0.35152015791E+02 -0.67419783452E+02  0.78059673729E+02  0.00000000000E+00 0.  1.
</event>
<event>
 4   0  0.8936300E+00  0.1122199E+03  0.7957747E-01  0.1258567E+00
        1   -1    0    0  501    0  0.00000000000E+00  0.00000000000E+00  0.42958124376E+02  0.42958124376E+02  0.00000000000E+00 0. -1.
       -2   -1    0    0    0  501  0.00000000000E+00  0.00000000000E+00 -0.73288303443E+02  0.73288303443E+02  0.00000000000E+00 0.  1.
       11    1    1    2    0    0 -0.22259065931E+02 -0.50910791612E+02 -0.70776998376E+01  0.56013110552E+02  0.00000000000E+00 0. -1.
      -12    1    1    2    0    0  0.22259065931E+02  0.50910791612E+02 -0.23252479230E+02  0.60233317267E+02  0.00000000000E+00 0.  1.
</event>
<event>
 5   0  0.8936300E+00  0.8002604E+02  0.7957747E-01  0.1327495E+00
        1   -1    0    0  501    0  0.00000000000E+00  0.00000000000E+00  0.12716066912E+02  0.12716066912E+02  0.00000000000E+00 0. -1.
       -2   -1    0    0    0  501  0.00000000000E+00  0.00000000000E+00 -0.12590699202E+03  0.12590699202E+03  0.00000000000E+00 0.  1.
      -24    2    1    2    0    0  0.00000000000E+00  0.00000000000E+00 -0.11319092510E+03  0.13862305893E+03  0.80026039141E+02 0.  0.
       11    1    3    3    0    0  0.22919391129E+02  0.15758453432E+01  0.15332914555E+00  0.22974013321E+02  0.00000000000E+00 0. -1.
      -12    1    3    3    0    0 -0.22919391129E+02 -0.15758453432E+01 -0.11334425425E+03  0.11564904561E+03  0.00000000000E+00 0.  1.
</event>
<event>
 5   0  0.8936300E+00  0.8013744E+02  0.7957747E-01  0.1327196E+00
        1   -1    0    0  501    0  0.00000000000E+00  0.00000000000E+00  0.13169745652E+02  0.13169745652E+02  0.00000000000E+00 0. -1.
       -2   -1    0    0    0  501  0.00000000000E+00  0.00000000000E+00 -0.12190837918E+03  0.12190837918E+03  0.00000000000E+00 0.  1.
      -24    2    1    2    0    0  0.00000000000E+00  0.00000000000E+00 -0.10873863353E+03  0.13507812483E+03  0.80137440604E+02 0.  0.
       11    1    3    3    0    0  0.17188093543E+02  0.84326612857E+01  0.49612572578E+01  0.19777623962E+02  0.00000000000E+00 0. -1.
      -12    1    3    3    0    0 -0.17188093543E+02 -0.84326612857E+01 -0.11369989079E+03  0.11530050087E+03  0.00000000000E+00 0.  1.
</event>
<event>
 5   0  0.8936300E+00  0.7919856E+02  0.7957747E-01  0.1329734E+00
        1   -1    0    0  501    0  0.00000000000E+00  0.00000000000E+00  0.11087183295E+02  0.11087183295E+02  0.00000000000E+00 0. -1.
       -2   -1    0    0    0  501  0.00000000000E+00  0.00000000000E+00 -0.14143384690E+03  0.14143384690E+03  0.00000000000E+00 0.  1.
      -24    2    1    2    0    0  0.00000000000E+00  0.00000000000E+00 -0.13034666361E+03  0.15252103020E+03  0.79198560205E+02 0.  0.
       11    1    3    3    0    0  0.57506931764E+01  0.32497186085E+02 -0.23026540320E+02  0.40241261592E+02  0.00000000000E+00 0. -1.
      -12    1    3    3    0    0 -0.57506931764E+01 -0.32497186085E+02 -0.10732012329E+03  0.11227976860E+03  0.00000000000E+00 0.  1.
</event>
<event>
 5   0  0.8936300E+00  0.8026011E+02  0.7957747E-01  0.1326867E+00
        1   -1    0    0  501    0  0.00000000000E+00  0.00000000000E+00  0.91074280134E+01  0.91074280134E+01  0.00000000000E+00 0. -1.
       -2   -1    0    0    0  501  0.00000000000E+00  0.00000000000E+00 -0.17682501726E+03  0.17682501726E+03  0.00000000000E+00 0.  1.
      -24    2    1    2    0    0  0.00000000000E+00  0.00000000000E+00 -0.16771758925E+03  0.18593244528E+03  0.80260105051E+02 0.  0.
       11    1    3    3    0    0 -0.11601447302E+02  0.10867499501E+02  0.15025726963E+01  0.15967274333E+02  0.00000000000E+00 0. -1.
      -12    1    3    3    0    0  0.11601447302E+02 -0.10867499501E+02 -0.16922016195E+03  0.16996517095E+03  0.00000000000E+00 0.  1.
</event>
<event>
 5   0  0.8936300E+00  0.7549036E+02  0.7957747E-01  0.1340161E+00
        1   -1    0    0  501    0  0.00000000000E+00  0.00000000000E+00  0.13181300097E+03  0.13181300097E+03  0.00000000000E+00 0. -1.
       -2   -1    0    0    0  501  0.00000000000E+00  0.00000000000E+00 -0.10808483665E+02  0.10808483665E+02  0.00000000000E+00 0.  1.
      -24    2    1    2    0    0  0.00000000000E+00  0.00000000000E+00  0.12100451731E+03  0.14262148464E+03  0.75490361448E+02 0.  0.
       11    1    3    3    0    0  0.31036201787E+02 -0.20283034060E+02  0.47136258607E+02  0.59970610865E+02  0.00000000000E+00 0. -1.
      -12    1    3    3    0    0 -0.31036201787E+02  0.20283034060E+02  0.73868258702E+02  0.82650873775E+02  0.00000000000E+00 0.  1.
</event>
<event>
 5   0  0.8936300E+00  0.7915165E+02  0.7957747E-01  0.1329861E+00
        1   -1    0    0  501    0  0.00000000000E+00  0.00000000000E+00  0.11084522207E+02  0.11084522207E+02  0.00000000000E+00 0. -1.
       -2   -1    0    0    0  501  0.00000000000E+00  0.00000000000E+00 -0.14130025632E+03  0.14130025632E+03  0.00000000000E+00 0.  1.
      -24    2    1    2    0    0  0.00000000000E+00  0.00000000000E+00 -0.13021573412E+03  0.15238477853E+03  0.79151647591E+02 0.  0.
       11    1    3    3    0    0  0.33822430644E+02 -0.13813585558E+02 -0.35816973971E+02  0.51162755840E+02  0.00000000000E+00 0. -1.
      -12    1    3    3    0    0 -0.33822430644E+02  0.13813585558E+02 -0.94398760144E+02  0.10122202269E+03  0.00000000000E+00 0.  1.
</event>
<event>
 5   0  0.8936300E+00  0.7918771E+02  0.7957747E-01  0.1329763E+00
        1   -1    0    0  501    0  0.00000000000E+00  0.00000000000E+00  0.51054624929E+01  0.51054624929E+01  0.00000000000E+00 0. -1.
       -2   -1    0    0    0  501  0.00000000000E+00  0.00000000000E+00 -0.30705801670E+03  0.30705801670E+03  0.00000000000E+00 0.  1.
      -24    2    1    2    0    0  0.00000000000E+00  0.00000000000E+00 -0.30195255421E+03  0.31216347919E+03  0.79187705798E+02 0.  0.
       11    1    3    3    0    0  0.13378006267E+02  0.36010786030E+02 -0.18877195640E+03  0.19264111525E+03  0.00000000000E+00 0. -1.
      -12    1    3    3    0    0 -0.13378006267E+02 -0.36010786030E+02 -0.11318059780E+03  0.11952236394E+03  0.00000000000E+00 0.  1.
</event>
<event>
 5   0  0.8936300E+00  0.8247605E+02  0.7957747E-01  0.1321042E+00
       -2   -1    0    0    0  501  0.00000000000E+00  0.00000000000E+00  0.11644889491E+02  0.11644889491E+02  0.00000000000E+00 0.  1.
        1   -1    0    0  501    0  0.00000000000E+00  0.00000000000E+00 -0.14603612217E+03  0.14603612217E+03  0.00000000000E+00 0. -1.
      -24    2    1    2    0    0  0.00000000000E+00  0.00000000000E+00 -0.13439123268E+03  0.15768101166E+03  0.82476045113E+02 0.  0.
       11    1    3    3    0    0 -0.34688258589E+02  0.59175633550E+01 -0.10830158665E+03  0.11387504780E+03  0.00000000000E+00 0. -1.
      -12    1    3    3    0    0  0.34688258589E+02 -0.59175633550E+01 -0.26089646027E+02  0.43805963862E+02  0.00000000000E+00 0.  1.
</event>
<event>
 5   0  0.8936300E+00  0.8323826E+02  0.7957747E-01  0.1319086E+00
        1   -1    0    0  501    0  0.00000000000E+00  0.00000000000E+00  0.40580017027E+02  0.40580017027E+02  0.00000000000E+00 0. -1.
       -2   -1    0    0    0  501  0.00000000000E+00  0.00000000000E+00 -0.42684855605E+02  0.42684855605E+02  0.00000000000E+00 0.  1.
      -24    2    1    2    0    0  0.00000000000E+00  0.00000000000E+00 -0.21048385784E+01  0.83264872633E+02  0.83238264453E+02 0.  0.
       11    1    3    3    0    0 -0.95895128152E+01 -0.39554515818E+02  0.76471239121E+01  0.41412522041E+02  0.00000000000E+00 0. -1.
      -12    1    3    3    0    0  0.95895128152E+01  0.39554515818E+02 -0.97519624904E+01  0.41852350592E+02  0.00000000000E+00 0.  1.
</event>
<event>
 5   0  0.8936300E+00  0.7988779E+02  0.7957747E-01  0.1327867E+00
        1   -1    0    0  501    0  0.00000000000E+00  0.00000000000E+00  0.84121285671E+02  0.84121285671E+02  0.00000000000E+00 0. -1.
       -2   -1    0    0    0  501  0.00000000000E+00  0.00000000000E+00 -0.18966835160E+02  0.18966835160E+02  0.00000000000E+00 0.  1.
      -24    2    1    2    0    0  0.00000000000E+00  0.00000000000E+00  0.65154450511E+02  0.10308812083E+03  0.79887785268E+02 0.  0.
       11    1    3    3    0    0 -0.15013816842E+02  0.23849974826E+02  0.69104729828E+02  0.74630420607E+02  0.00000000000E+00 0. -1.
      -12    1    3    3    0    0  0.15013816842E+02 -0.23849974826E+02 -0.39502793166E+01  0.28457700224E+02  0.00000000000E+00 0.  1.
</event>
<event>
 5   0  0.8936300E+00  0.8006019E+02  0.7957747E-01  0.1327403E+00
        1   -1    0    0  501    0  0.00000000000E+00  0.00000000000E+00  0.12799528796E+02  0.12799528796E+02  0.00000000000E+00 0. -1.
       -2   -1    0    0    0  501  0.00000000000E+00  0.00000000000E+00 -0.12519278373E+03  0.12519278373E+03  0.00000000000E+00 0.  1.
      -24    2    1    2    0    0  0.00000000000E+00  0.00000000000E+00 -0.11239325493E+03  0.13799231252E+03  0.80060193365E+02 0.  0.
       11    1    3    3    0    0  0.36943594092E+02 -0.18530241729E+00 -0.29631533881E+02  0.47359173151E+02  0.00000000000E+00 0. -1.
      -12    1    3    3    0    0 -0.36943594092E+02  0.18530241729E+00 -0.82761721050E+02  0.90633139373E+02  0.00000000000E+00 0.  1.
</event>
<event>
 5   0  0.8936300E+00  0.8053043E+02  0.7957747E-01  0.1326145E+00
        1   -1    0    0  501    0  0.00000000000E+00  0.00000000000E+00  0.55972624893E+01  0.55972624893E+01  0.00000000000E+00 0. -1.
       -2   -1    0    0    0  501  0.00000000000E+00  0.00000000000E+00 -0.28965726059E+03  0.28965726059E+03  0.00000000000E+00 0.  1.
      -24    2    1    2    0    0  0.00000000000E+00  0.00000000000E+00 -0.28405999810E+03  0.29525452308E+03  0.80530434482E+02 0.  0.
       11    1    3    3    0    0 -0.32407255182E+02 -0.16231931038E+02 -0.77729115998E+02  0.85764335522E+02  0.00000000000E+00 0. -1.
      -12    1    3    3    0    0  0.32407255182E+02  0.16231931038E+02 -0.20633088211E+03  0.20949018756E+03  0.00000000000E+00 0.  1.
</event>
<event>
 5   0  0.8936300E+00  0.8042903E+02  0.7957747E-01  0.1326416E+00
        1   -1    0    0  501    0  0.00000000000E+00  0.00000000000E+00  0.19330394066E+02  0.19330394066E+02  0.00000000000E+00 0. -1.
       -2   -1    0    0    0  501  0.00000000000E+00  0.00000000000E+00 -0.83661363066E+02  0.83661363066E+02  0.00000000000E+00 0.  1.
      -24    2    1    2    0    0  0.00000000000E+00  0.00000000000E+00 -0.64330968999E+02  0.10299175713E+03  0.80429027501E+02 0.  0.
       11    1    3    3    0    0 -0.14494077549E+02 -0.23405780676E+02  0.53716932725E+01  0.28049312677E+02  0.00000000000E+00 0. -1.
      -12    1    3    3    0    0  0.14494077549E+02  0.23405780676E+02 -0.69702662272E+02  0.74942444455E+02  0.00000000000E+00 0.  1.
</event>
<event>
 5   0  0.8936300E+00  0.7980872E+02  0.7957747E-01  0.1328080E+00
        1   -1    0    0  501    0  0.00000000000E+00  0.00000000000E+00  0.33560161110E+02  0.33560161110E+02  0.00000000000E+00 0. -1.
       -2   -1    0    0    0  501  0.00000000000E+00  0.00000000000E+00 -0.47447868432E+02  0.47447868432E+02  0.00000000000E+00 0.  1.
      -24    2    1    2    0    0  0.00000000000E+00  0.00000000000E+00 -0.13887707323E+02  0.81008029542E+02  0.79808724057E+02 0.  0.
       11    1    3    3    0    0  0.29303978056E+02  0.13200888776E+02 -0.30950299872E+02  0.44619588261E+02  0.00000000000E+00 0. -1.
      -12    1    3    3    0    0 -0.29303978056E+02 -0.13200888776E+02  0.17062592549E+02  0.36388441282E+02  0.00000000000E+00 0.  1.
</event>
<event>
 5   0  0.8936300E+00  0.8258775E+02  0.7957747E-01  0.1320754E+00
        3   -1    0    0  501    0  0.00000000000E+00  0.00000000000E+00  0.62297874676E+02  0.62297874676E+02  0.00000000000E+00 0. -1.
       -4   -1    0    0    0  501  0.00000000000E+00  0.00000000000E+00 -0.27371463266E+02  0.27371463266E+02  0.00000000000E+00 0.  1.
      -24    2    1    2    0    0  0.00000000000E+00  0.00000000000E+00  0.34926411410E+02  0.89669337942E+02  0.82587746991E+02 0.  0.
       11    1    3    3    0    0  0.21300779977E+02  0.26715403778E+02  0.42641002899E+02  0.54641478337E+02  0.00000000000E+00 0. -1.
      -12    1    3    3    0    0 -0.21300779977E+02 -0.26715403778E+02 -0.77145914882E+01  0.35027859605E+02  0.00000000000E+00 0.  1.
</event>
<event>
 5   0  0.8936300E+00  0.7990032E+02  0.7957747E-01  0.1327833E+00
       -2   -1    0    0    0  501  0.00000000000E+00  0.00000000000E+00  0.12636849653E+03  0.12636849653E+03  0.00000000000E+00 0.  1.
        1   -1    0    0  501    0  0.00000000000E+00  0.00000000000E+00 -0.12629851934E+02  0.12629851934E+02  0.00000000000E+00 0. -1.
      -24    2    1    2    0    0  0.00000000000E+00  0.00000000000E+00  0.11373864460E+03  0.13899834847E+03  0.79900322912E+02 0.  0.
       11    1    3    3    0    0 -0.10747650434E+02  0.21985770113E+02  0.19358755089E+01  0.24548598561E+02  0.00000000000E+00 0. -1.
      -12    1    3    3    0    0  0.10747650434E+02 -0.21985770113E+02  0.11180276909E+03  0.11444974991E+03  0.00000000000E+00 0.  1.
</event>
<event>
 5   0  0.8936300E+00  0.8103771E+02  0.7957747E-01  0.1324799E+00
        1   -1    0    0  501    0  0.00000000000E+00  0.00000000000E+00  0.13715171633E+03  0.13715171633E+03  0.00000000000E+00 0. -1.
       -2   -1    0    0    0  501  0.00000000000E+00  0.00000000000E+00 -0.11970520685E+02  0.11970520685E+02  0.00000000000E+00 0.  1.
      -24    2    1    2    0    0  0.00000000000E+00  0.00000000000E+00  0.12518119564E+03  0.14912223701E+03  0.81037706218E+02 0.  0.
       11    1    3    3    0    0 -0.39747016761E+02 -0.46259269080E+01  0.50872251879E+02  0.64724111059E+02  0.00000000000E+00 0. -1.
      -12    1    3    3    0    0  0.39747016761E+02  0.46259269080E+01  0.74308943762E+02  0.84398125952E+02  0.00000000000E+00 0.  1.
</event>
<event>
 5   0  0.8936300E+00  0.8016923E+02  0.7957747E-01  0.1327111E+00
        1   -1    0    0  501    0  0.00000000000E+00  0.00000000000E+00  0.12597695684E+03  0.12597695684E+03  0.00000000000E+00 0. -1.
       -2   -1    0    0    0  501  0.00000000000E+00  0.00000000000E+00 -0.12754527215E+02  0.12754527215E+02  0.00000000000E+00 0.  1.
      -24    2    1    2    0    0  0.00000000000E+00  0.00000000000E+00  0.11322242962E+03  0.13873148405E+03  0.80169234110E+02 0.  0.
       11    1    3    3    0    0  0.62868286542E+01 -0.38462789001E+02  0.72832234485E+02  0.82604144765E+02  0.00000000000E+00 0. -1.
      -12    1    3    3    0    0 -0.62868286542E+01  0.38462789001E+02  0.40390195137E+02  0.56127339287E+02  0.00000000000E+00 0.  1.
</event>
<event>
 5   0  0.8936300E+00  0.8002691E+02  0.7957747E-01  0.1327492E+00
        1   -1    0    0  501    0  0.00000000000E+00  0.00000000000E+00  0.14572130403E+03  0.14572130403E+03  0.00000000000E+00 0. -1.
       -2   -1    0    0    0  501  0.00000000000E+00  0.00000000000E+00 -0.10987251739E+02  0.10987251739E+02  0.00000000000E+00 0.  1.
      -24    2    1    2    0    0  0.00000000000E+00  0.00000000000E+00  0.13473405229E+03  0.15670855577E+03  0.80026911752E+02 0.  0.
       11    1    3    3    0    0  0.19426716927E+02 -0.11113771988E+02  0.13231793693E+03  0.13419742804E+03  0.00000000000E+00 0. -1.
      -12    1    3    3    0    0 -0.19426716927E+02  0.11113771988E+02  0.24161153614E+01  0.22511127733E+02  0.00000000000E+00 0.  1.
</event>
<event>
 5   0  0.8936300E+00  0.8200663E+02  0.7957747E-01  0.1322259E+00
        1   -1    0    0  501    0  0.00000000000E+00  0.00000000000E+00  0.13066251807E+03  0.13066251807E+03  0.00000000000E+00 0. -1.
       -2   -1    0    0    0  501  0.00000000000E+00  0.00000000000E+00 -0.12867284085E+02  0.12867284085E+02  0.00000000000E+00 0.  1.
      -24    2    1    2    0    0  0.00000000000E+00  0.00000000000E+00  0.11779523399E+03  0.14352980216E+03  0.82006627518E+02 0.  0.
       11    1    3    3    0    0 -0.26878596911E+02  0.13959186964E+02  0.10521979546E+02  0.32062905766E+02  0.00000000000E+00 0. -1.
      -12    1    3    3    0    0  0.26878596911E+02 -0.13959186964E+02  0.10727325444E+03  0.11146689639E+03  0.00000000000E+00 0.  1.
</event>
<event>
 5   0  0.8936300E+00  0.8419391E+02  0.7957747E-01  0.1316667E+00
        1   -1    0    0  501    0  0.00000000000E+00  0.00000000000E+00  0.10607632163E+03  0.10607632163E+03  0.00000000000E+00 0. -1.
       -2   -1    0    0    0  501  0.00000000000E+00  0.00000000000E+00 -0.16706401635E+02  0.16706401635E+02  0.00000000000E+00 0.  1.
      -24    2    1    2    0    0  0.00000000000E+00  0.00000000000E+00  0.89369919992E+02  0.12278272326E+03  0.84193910304E+02 0.  0.
       11    1    3    3    0    0 -0.24019639465E+02  0.29021823523E+02  0.72082380479E+02  0.81333135291E+02  0.00000000000E+00 0. -1.
      -12    1    3    3    0    0  0.24019639465E+02 -0.29021823523E+02  0.17287539513E+02  0.41449587972E+02  0.00000000000E+00 0.  1.
</event>
<event>
 5   0  0.8936300E+00  0.8120781E+02  0.7957747E-01  0.1324350E+00
        1   -1    0    0  501    0  0.00000000000E+00  0.00000000000E+00  0.99489735238E+01  0.99489735238E+01  0.00000000000E+00 0. -1.
       -2   -1    0    0    0  501  0.00000000000E+00  0.00000000000E+00 -0.16571326813E+03  0.16571326813E+03  0.00000000000E+00 0.  1.
      -24    2    1    2    0    0  0.00000000000E+00  0.00000000000E+00 -0.15576429460E+03  0.17566224165E+03  0.81207805465E+02 0.  0.
       11    1    3    3    0    0 -0.31379483414E+02 -0.24082243270E+02 -0.97713429237E+02  0.10541603613E+03  0.00000000000E+00 0. -1.
      -12    1    3    3    0    0  0.31379483414E+02  0.24082243270E+02 -0.58050865366E+02  0.70246205520E+02  0.00000000000E+00 0.  1.
</event>
<event>
 5   0  0.8936300E+00  0.8137207E+02  0.7957747E-01  0.1323918E+00
        1   -1    0    0  501    0  0.00000000000E+00  0.00000000000E+00  0.44957216465E+02  0.44957216465E+02  0.00000000000E+00 0. -1.
       -2   -1    0    0    0  501  0.00000000000E+00  0.00000000000E+00 -0.36820635563E+02  0.36820635563E+02  0.00000000000E+00 0.  1.
      -24    2    1    2    0    0  0.00000000000E+00  0.00000000000E+00  0.81365809020E+01  0.81777852027E+02  0.81372066051E+02 0.  0.
       11    1    3    3    0    0 -0.28039425404E+02 -0.23469023722E+02 -0.13863018220E+02  0.39104829953E+02  0.00000000000E+00 0. -1.
      -12    1    3    3    0    0  0.28039425404E+02  0.23469023722E+02  0.21999599122E+02  0.42673022075E+02  0.00000000000E+00 0.  1.
</event>
<event>
 5   0  0.8936300E+00  0.7953969E+02  0.7957747E-01  0.1328807E+00
        1   -1    0    0  501    0  0.00000000000E+00  0.00000000000E+00  0.52281168957E+02  0.52281168957E+02  0.00000000000E+00 0. -1.
       -2   -1    0    0    0  501  0.00000000000E+00  0.00000000000E+00 -0.30252588786E+02  0.30252588786E+02  0.00000000000E+00 0.  1.
      -24    2    1    2    0    0  0.00000000000E+00  0.00000000000E+00  0.22028580171E+02  0.82533757743E+02  0.79539693379E+02 0.  0.
       11    1    3    3    0    0 -0.25610552131E+02 -0.25565571280E+02  0.28131989857E+02  0.45835659357E+02  0.00000000000E+00 0. -1.
      -12    1    3    3    0    0  0.25610552131E+02  0.25565571280E+02 -0.61034096861E+01  0.36698098386E+02  0.00000000000E+00 0.  1.
</event>
<event>
 5   0  0.8936300E+00  0.8568675E+02  0.7957747E-01  0.1312959E+00
        1   -1    0    0  501    0  0.00000000000E+00  0.00000000000E+00  0.64759388735E+01  0.64759388735E+01  0.00000000000E+00 0. -1.
       -2   -1    0    0    0  501  0.00000000000E+00  0.00000000000E+00 -0.28344224074E+03  0.28344224074E+03  0.00000000000E+00 0.  1.
      -24    2    1    2    0    0  0.00000000000E+00  0.00000000000E+00 -0.27696630187E+03  0.28991817961E+03  0.85686746354E+02 0.  0.
       11    1    3    3    0    0  0.29086244967E+02  0.20377416491E+02 -0.57399475487E+02  0.67497766891E+02  0.00000000000E+00 0. -1.
      -12    1    3    3    0    0 -0.29086244967E+02 -0.20377416491E+02 -0.21956682638E+03  0.22242041272E+03  0.00000000000E+00 0.  1.
</event>
<event>
 5   0  0.8936300E+00  0.8035746E+02  0.7957747E-01  0.1326607E+00
        1   -1    0    0  501    0  0.00000000000E+00  0.00000000000E+00  0.24404790383E+03  0.24404790383E+03  0.00000000000E+00 0. -1.
       -2   -1    0    0    0  501  0.00000000000E+00  0.00000000000E+00 -0.66148093235E+01  0.66148093235E+01  0.00000000000E+00 0.  1.
      -24    2    1    2    0    0  0.00000000000E+00  0.00000000000E+00  0.23743309451E+03  0.25066271315E+03  0.80357460130E+02 0.  0.
       11    1    3    3    0    0 -0.30962181711E+02  0.23822664487E+02  0.14800425014E+03  0.15307329649E+03  0.00000000000E+00 0. -1.
      -12    1    3    3    0    0  0.30962181711E+02 -0.23822664487E+02  0.89428844370E+02  0.97589416664E+02  0.00000000000E+00 0.  1.
</event>
<event>
 5   0  0.8936300E+00  0.8136651E+02  0.7957747E-01  0.1323932E+00
        1   -1    0    0  501    0  0.00000000000E+00  0.00000000000E+00  0.12890665522E+03  0.12890665522E+03  0.00000000000E+00 0. -1.
       -2   -1    0    0    0  501  0.00000000000E+00  0.00000000000E+00 -0.12839733368E+02  0.12839733368E+02  0.00000000000E+00 0.  1.
      -24    2    1    2    0    0  0.00000000000E+00  0.00000000000E+00  0.11606692185E+03  0.14174638859E+03  0.81366506191E+02 0.  0.
       11    1    3    3    0    0 -0.23707698443E+02  0.27740441932E+02  0.89368506025E+02  0.96531429873E+02  0.00000000000E+00 0. -1.
      -12    1    3    3    0    0  0.23707698443E+02 -0.27740441932E+02  0.26698415826E+02  0.45214958716E+02  0.00000000000E+00 0.  1.
</event>
<event>
 5   0  0.8936300E+00  0.8050799E+02  0.7957747E-01  0.1326205E+00
        1   -1    0    0  501    0  0.00000000000E+00  0.00000000000E+00  0.63291999825E+01  0.63291999825E+01  0.00000000000E+00 0. -1.
       -2   -1    0    0    0  501  0.00000000000E+00  0.00000000000E+00 -0.25601723121E+03  0.25601723121E+03  0.00000000000E+00 0.  1.
      -24    2    1    2    0    0  0.00000000000E+00  0.00000000000E+00 -0.24968803122E+03  0.26234643119E+03  0.80507993523E+02 0.  0.
       11    1    3    3    0    0 -0.14972886731E+02 -0.37354307802E+02 -0.12785293514E+03  0.13403695264E+03  0.00000000000E+00 0. -1.
      -12    1    3    3    0    0  0.14972886731E+02  0.37354307802E+02 -0.12183509608E+03  0.12830947855E+03  0.00000000000E+00 0.  1.
</event>
<event>
 5   0  0.8936300E+00  0.7908979E+02  0.7957747E-01  0.1330030E+00
       -2   -1    0    0    0  501  0.00000000000E+00  0.00000000000E+00  0.18972522026E+03  0.18972522026E+03  0.00000000000E+00 0.  1.
        1   -1    0    0  501    0  0.00000000000E+00  0.00000000000E+00 -0.82424403253E+01  0.82424403253E+01  0.00000000000E+00 0. -1.
      -24    2    1    2    0    0  0.00000000000E+00  0.00000000000E+00  0.18148277993E+03  0.19796766058E+03  0.79089792165E+02 0.  0.
       11    1    3    3    0    0  0.22063921502E+02 -0.19853354157E+02  0.25333671370E+02  0.39022649941E+02  0.00000000000E+00 0. -1.
      -12    1    3    3    0    0 -0.22063921502E+02  0.19853354157E+02  0.15614910856E+03  0.15894501064E+03  0.00000000000E+00 0.  1.
</event>
<event>
 5   0  0.8936300E+00  0.8103503E+02  0.7957747E-01  0.1324806E+00
        1   -1    0    0  501    0  0.00000000000E+00  0.00000000000E+00  0.49401916717E+02  0.49401916717E+02  0.00000000000E+00 0. -1.
       -2   -1    0    0    0  501  0.00000000000E+00  0.00000000000E+00 -0.33230878802E+02  0.33230878802E+02  0.00000000000E+00 0.  1.
      -24    2    1    2    0    0  0.00000000000E+00  0.00000000000E+00  0.16171037914E+02  0.82632795519E+02  0.81035032104E+02 0.  0.
       11    1    3    3    0    0 -0.15460559749E+02 -0.12001175989E+01  0.46256180637E+02  0.48786303786E+02  0.00000000000E+00 0. -1.
      -12    1    3    3    0    0  0.15460559749E+02  0.12001175989E+01 -0.30085142723E+02  0.33846491733E+02  0.00000000000E+00 0.  1.
</event>
<event>
 5   0  0.8936300E+00  0.9744756E+02  0.7957747E-01  0.1286452E+00
        1   -1    0    0  501    0  0.00000000000E+00  0.00000000000E+00  0.11638258522E+02  0.11638258522E+02  0.00000000000E+00 0. -1.
       -2   -1    0    0    0  501  0.00000000000E+00  0.00000000000E+00 -0.20398299428E+03  0.20398299428E+03  0.00000000000E+00 0.  1.
      -24    2    1    2    0    0  0.00000000000E+00  0.00000000000E+00 -0.19234473576E+03  0.21562125280E+03  0.97447561727E+02 0.  0.
       11    1    3    3    0    0  0.25908493205E+02  0.30138732158E+02 -0.15853779920E+03  0.16344365075E+03  0.00000000000E+00 0. -1.
      -12    1    3    3    0    0 -0.25908493205E+02 -0.30138732158E+02 -0.33806936558E+02  0.52177602050E+02  0.00000000000E+00 0.  1.
</event>
<event>
 5   0  0.8936300E+00  0.8086366E+02  0.7957747E-01  0.1325260E+00
        1   -1    0    0  501    0  0.00000000000E+00  0.00000000000E+00  0.22948084012E+02  0.22948084012E+02  0.00000000000E+00 0. -1.
       -2   -1    0    0    0  501  0.00000000000E+00  0.00000000000E+00 -0.71236140997E+02  0.71236140997E+02  0.00000000000E+00 0.  1.
      -24    2    1    2    0    0  0.00000000000E+00  0.00000000000E+00 -0.48288056985E+02  0.94184225009E+02  0.80863661760E+02 0.  0.
       11    1    3    3    0    0  0.19556800423E+02 -0.26684556125E+02  0.29268058200E+01  0.33212951851E+02  0.00000000000E+00 0. -1.
      -12    1    3    3    0    0 -0.19556800423E+02  0.26684556125E+02 -0.51214862805E+02  0.60971273158E+02  0.00000000000E+00 0.  1.
</event>
<event>
 5   0  0.8936300E+00  0.8088016E+02  0.7957747E-01  0.1325216E+00
        1   -1    0    0  501    0  0.00000000000E+00  0.00000000000E+00  0.64405984772E+01  0.64405984772E+01  0.00000000000E+00 0. -1.
       -2   -1    0    0    0  501  0.00000000000E+00  0.00000000000E+00 -0.25392048393E+03  0.25392048393E+03  0.00000000000E+00 0.  1.
      -24    2    1    2    0    0  0.00000000000E+00  0.00000000000E+00 -0.24747988545E+03  0.26036108241E+03  0.80880155344E+02 0.  0.
       11    1    3    3    0    0  0.24580785021E+02 -0.34453768616E+01 -0.20964787031E+02  0.32490120178E+02  0.00000000000E+00 0. -1.
      -12    1    3    3    0    0 -0.24580785021E+02  0.34453768616E+01 -0.22651509842E+03  0.22787096223E+03  0.00000000000E+00 0.  1.
</event>
<event>
 5   0  0.8936300E+00  0.8092682E+02  0.7957747E-01  0.1325092E+00
        1   -1    0    0  501    0  0.00000000000E+00  0.00000000000E+00  0.11107770496E+02  0.11107770496E+02  0.00000000000E+00 0. -1.
       -2   -1    0    0    0  501  0.00000000000E+00  0.00000000000E+00 -0.14740018100E+03  0.14740018100E+03  0.00000000000E+00 0.  1.
      -24    2    1    2    0    0  0.00000000000E+00  0.00000000000E+00 -0.13629241050E+03  0.15850795149E+03  0.80926815865E+02 0.  0.
       11    1    3    3    0    0  0.31545355635E+02 -0.17360935519E+02 -0.31989154648E+02  0.48164484419E+02  0.00000000000E+00 0. -1.
      -12    1    3    3    0    0 -0.31545355635E+02  0.17360935519E+02 -0.10430325585E+03  0.11034346707E+03  0.00000000000E+00 0.  1.
</event>
<event>
 5   0  0.8936300E+00  0.8063302E+02  0.7957747E-01  0.1325872E+00
        1   -1    0    0  501    0  0.00000000000E+00  0.00000000000E+00  0.29225039540E+02  0.29225039540E+02  0.00000000000E+00 0. -1.
       -2   -1    0    0    0  501  0.00000000000E+00  0.00000000000E+00 -0.55617406117E+02  0.55617406117E+02  0.00000000000E+00 0.  1.
      -24    2    1    2    0    0  0.00000000000E+00  0.00000000000E+00 -0.26392366577E+02  0.84842445657E+02  0.80633017874E+02 0.  0.
       11    1    3    3    0    0  0.19143279750E+02  0.29311772757E+02  0.78420112468E+01  0.35876765771E+02  0.00000000000E+00 0. -1.
      -12    1    3    3    0    0 -0.19143279750E+02 -0.29311772757E+02 -0.34234377824E+02  0.48965679886E+02  0.00000000000E+00 0.  1.
</event>
<event>
 5   0  0.8936300E+00  0.7856553E+02  0.7957747E-01  0.1331467E+00
        1   -1    0    0  501    0  0.00000000000E+00  0.00000000000E+00  0.45710680749E+01  0.45710680749E+01  0.00000000000E+00 0. -1.
       -2   -1    0    0    0  501  0.00000000000E+00  0.00000000000E+00 -0.33758752467E+03  0.33758752467E+03  0.00000000000E+00 0.  1.
      -24    2    1    2    0    0  0.00000000000E+00  0.00000000000E+00 -0.33301645659E+03  0.34215859274E+03  0.78565528230E+02 0.  0.
       11    1    3    3    0    0 -0.30484340494E+02  0.23017899129E+02 -0.12658932129E+03  0.13222698273E+03  0.00000000000E+00 0. -1.
      -12    1    3    3    0    0  0.30484340494E+02 -0.23017899129E+02 -0.20642713530E+03  0.20993161001E+03  0.00000000000E+00 0.  1.
</event>
<event>
 5   0  0.8936300E+00  0.8085570E+02  0.7957747E-01  0.1325281E+00
        1   -1    0    0  501    0  0.00000000000E+00  0.00000000000E+00  0.10669979378E+02  0.10669979378E+02  0.00000000000E+00 0. -1.
       -2   -1    0    0    0  501  0.00000000000E+00  0.00000000000E+00 -0.15317847654E+03  0.15317847654E+03  0.00000000000E+00 0.  1.
      -24    2    1    2    0    0  0.00000000000E+00  0.00000000000E+00 -0.14250849716E+03  0.16384845592E+03  0.80855703222E+02 0.  0.
       11    1    3    3    0    0  0.23704814645E+02 -0.10987521711E+02 -0.87373985379E+01  0.27549700613E+02  0.00000000000E+00 0. -1.
      -12    1    3    3    0    0 -0.23704814645E+02  0.10987521711E+02 -0.13377109862E+03  0.13629875530E+03  0.00000000000E+00 0.  1.
</event>
<event>
 5   0  0.8936300E+00  0.8142943E+02  0.7957747E-01  0.1323767E+00
        1   -1    0    0  501    0  0.00000000000E+00  0.00000000000E+00  0.99271270590E+01  0.99271270590E+01  0.00000000000E+00 0. -1.
       -2   -1    0    0    0  501  0.00000000000E+00  0.00000000000E+00 -0.16698565503E+03  0.16698565503E+03  0.00000000000E+00 0.  1.
      -24    2    1    2    0    0  0.00000000000E+00  0.00000000000E+00 -0.15705852797E+03  0.17691278209E+03  0.81429425013E+02 0.  0.
       11    1    3    3    0    0  0.14357230021E+01  0.40527823225E+02 -0.86399338255E+02  0.95443236569E+02  0.00000000000E+00 0. -1.
      -12    1    3    3    0    0 -0.14357230021E+01 -0.40527823225E+02 -0.70659189715E+02  0.81469545519E+02  0.00000000000E+00 0.  1.
</event>
<event>
 5   0  0.8936300E+00  0.8030732E+02  0.7957747E-01  0.1326741E+00
        1   -1    0    0  501    0  0.00000000000E+00  0.00000000000E+00  0.44080142017E+01  0.44080142017E+01  0.00000000000E+00 0. -1.
       -2   -1    0    0    0  501  0.00000000000E+00  0.00000000000E+00 -0.36576935817E+03  0.36576935817E+03  0.00000000000E+00 0.  1.
      -24    2    1    2    0    0  0.00000000000E+00  0.00000000000E+00 -0.36136134396E+03  0.37017737237E+03  0.80307322838E+02 0.  0.
       11    1    3    3    0    0 -0.36936701203E+02  0.22050244926E+01 -0.10880564659E+03  0.11492541390E+03  0.00000000000E+00 0. -1.
      -12    1    3    3    0    0  0.36936701203E+02 -0.22050244926E+01 -0.25255569737E+03  0.25525195847E+03  0.00000000000E+00 0.  1.
</event>
<event>
 5   0  0.8936300E+00  0.7504691E+02  0.7957747E-01  0.1341453E+00
        1   -1    0    0  501    0  0.00000000000E+00  0.00000000000E+00  0.48575485955E+01  0.48575485955E+01  0.00000000000E+00 0. -1.
       -2   -1    0    0    0  501  0.00000000000E+00  0.00000000000E+00 -0.28986015540E+03  0.28986015540E+03  0.00000000000E+00 0.  1.
      -24    2    1    2    0    0  0.00000000000E+00  0.00000000000E+00 -0.28500260680E+03  0.29471770399E+03  0.75046913081E+02 0.  0.
       11    1    3    3    0    0 -0.86627559355E+01 -0.36178161291E+02 -0.12321958036E+03  0.12871273317E+03  0.00000000000E+00 0. -1.
      -12    1    3    3    0    0  0.86627559355E+01  0.36178161291E+02 -0.16178302644E+03  0.16600497083E+03  0.00000000000E+00 0.  1.
</event>
<event>
 5   0  0.8936300E+00  0.7928605E+02  0.7957747E-01  0.1329495E+00
       -2   -1    0    0    0  501  0.00000000000E+00  0.00000000000E+00  0.40668325610E+02  0.40668325610E+02  0.00000000000E+00 0.  1.
        1   -1    0    0  501    0  0.00000000000E+00  0.00000000000E+00 -0.38643572475E+02  0.38643572475E+02  0.00000000000E+00 0. -1.
      -24    2    1    2    0    0  0.00000000000E+00  0.00000000000E+00  0.20247531354E+01  0.79311898085E+02  0.79286048916E+02 0.  0.
       11    1    3    3    0    0  0.34300342133E+02  0.18107215446E+02 -0.71869210436E+01  0.39446629206E+02  0.00000000000E+00 0. -1.
      -12    1    3    3    0    0 -0.34300342133E+02 -0.18107215446E+02  0.92116741790E+01  0.39865268879E+02  0.00000000000E+00 0.  1.
</event>
<event>
 5   0  0.8936300E+00  0.8042550E+02  0.7957747E-01  0.1326425E+00
        1   -1    0    0  501    0  0.00000000000E+00  0.00000000000E+00  0.13774949450E+02  0.13774949450E+02  0.00000000000E+00 0. -1.
       -2   -1    0    0    0  501  0.00000000000E+00  0.00000000000E+00 -0.11739174076E+03  0.11739174076E+03  0.00000000000E+00 0.  1.
      -24    2    1    2    0    0  0.00000000000E+00  0.00000000000E+00 -0.10361679131E+03  0.13116669021E+03  0.80425500803E+02 0.  0.
       11    1    3    3    0    0 -0.20017874470E+02  0.27648785826E+02 -0.17138831615E+02  0.38195683068E+02  0.00000000000E+00 0. -1.
      -12    1    3    3    0    0  0.20017874470E+02 -0.27648785826E+02 -0.86477959696E+02  0.92971007142E+02  0.00000000000E+00 0.  1.
</event>
<event>
 5   0  0.8936300E+00  0.8007896E+02  0.7957747E-01  0.1327353E+00
        1   -1    0    0  501    0  0.00000000000E+00  0.00000000000E+00  0.60335583421E+02  0.60335583421E+02  0.00000000000E+00 0. -1.
       -2   -1    0    0    0  501  0.00000000000E+00  0.00000000000E+00 -0.26570718702E+02  0.26570718702E+02  0.00000000000E+00 0.  1.
      -24    2    1    2    0    0  0.00000000000E+00  0.00000000000E+00  0.33764864719E+02  0.86906302122E+02  0.80078956406E+02 0.  0.
       11    1    3    3    0    0  0.29684492168E+01  0.98145614228E+01  0.58886566395E+02  0.59772610855E+02  0.00000000000E+00 0. -1.
      -12    1    3    3    0    0 -0.29684492168E+01 -0.98145614228E+01 -0.25121701676E+02  0.27133691267E+02  0.00000000000E+00 0.  1.
</event>
<event>
 5   0  0.8936300E+00  0.8986445E+02  0.7957747E-01  0.1303022E+00
       -2   -1    0    0    0  501  0.00000000000E+00  0.00000000000E+00  0.15623365481E+03  0.15623365481E+03  0.00000000000E+00 0.  1.
        1   -1    0    0  501    0  0.00000000000E+00  0.00000000000E+00 -0.12922342438E+02  0.12922342438E+02  0.00000000000E+00 0. -1.
      -24    2    1    2    0    0  0.00000000000E+00  0.00000000000E+00  0.14331131237E+03  0.16915599725E+03  0.89864448762E+02 0.  0.
       11    1    3    3    0    0  0.15129545129E+02  0.31904580702E+02  0.19351513537E+02  0.40265201872E+02  0.00000000000E+00 0. -1.
      -12    1    3    3    0    0 -0.15129545129E+02 -0.31904580702E+02  0.12395979884E+03  0.12889079538E+03  0.00000000000E+00 0.  1.
</event>
<event>
 5   0  0.8936300E+00  0.8102175E+02  0.7957747E-01  0.1324841E+00
        1   -1    0    0  501    0  0.00000000000E+00  0.00000000000E+00  0.16818414755E+02  0.16818414755E+02  0.00000000000E+00 0. -1.
       -2   -1    0    0    0  501  0.00000000000E+00  0.00000000000E+00 -0.97579403020E+02  0.97579403020E+02  0.00000000000E+00 0.  1.
      -24    2    1    2    0    0  0.00000000000E+00  0.00000000000E+00 -0.80760988265E+02  0.11439781778E+03  0.81021746996E+02 0.  0.
       11    1    3    3    0    0 -0.35888276333E+02  0.18369094779E+02 -0.34779016053E+02  0.53244454911E+02  0.00000000000E+00 0. -1.
      -12    1    3    3    0    0  0.35888276333E+02 -0.18369094779E+02 -0.45981972212E+02  0.61153362865E+02  0.00000000000E+00 0.  1.
</event>
<event>
 5   0  0.8936300E+00  0.8177649E+02  0.7957747E-01  0.1322858E+00
        1   -1    0    0  501    0  0.00000000000E+00  0.00000000000E+00  0.10258078674E+02  0.10258078674E+02  0.00000000000E+00 0. -1.
       -2   -1    0    0    0  501  0.00000000000E+00  0.00000000000E+00 -0.16297871039E+03  0.16297871039E+03  0.00000000000E+00 0.  1.
      -24    2    1    2    0    0  0.00000000000E+00  0.00000000000E+00 -0.15272063171E+03  0.17323678906E+03  0.81776486435E+02 0.  0.
       11    1    3    3    0    0 -0.39485858397E+02  0.74327274896E+01 -0.60300808838E+02  0.72460789382E+02  0.00000000000E+00 0. -1.
      -12    1    3    3    0    0  0.39485858397E+02 -0.74327274896E+01 -0.92419822874E+02  0.10077599968E+03  0.00000000000E+00 0.  1.
</event>
<event>
 5   0  0.8936300E+00  0.7695545E+02  0.7957747E-01  0.1335961E+00
        1   -1    0    0  501    0  0.00000000000E+00  0.00000000000E+00  0.11144084599E+02  0.11144084599E+02  0.00000000000E+00 0. -1.
       -2   -1    0    0    0  501  0.00000000000E+00  0.00000000000E+00 -0.13285393427E+03  0.13285393427E+03  0.00000000000E+00 0.  1.
      -24    2    1    2    0    0  0.00000000000E+00  0.00000000000E+00 -0.12170984967E+03  0.14399801887E+03  0.76955454199E+02 0.  0.
       11    1    3    3    0    0 -0.56122613286E+01  0.29376687165E+02 -0.15556426986E+02  0.33711862105E+02  0.00000000000E+00 0. -1.
      -12    1    3    3    0    0  0.56122613286E+01 -0.29376687165E+02 -0.10615342268E+03  0.11028615676E+03  0.00000000000E+00 0.  1.
</event>
<event>
 5   0  0.8936300E+00  0.7350943E+02  0.7957747E-01  0.1346014E+00
       -2   -1    0    0    0  501  0.00000000000E+00  0.00000000000E+00  0.10735651870E+02  0.10735651870E+02  0.00000000000E+00 0.  1.
        1   -1    0    0  501    0  0.00000000000E+00  0.00000000000E+00 -0.12583390730E+03  0.12583390730E+03  0.00000000000E+00 0. -1.
      -24    2    1    2    0    0  0.00000000000E+00  0.00000000000E+00 -0.11509825543E+03  0.13656955917E+03  0.73509428572E+02 0.  0.
       11    1    3    3    0    0  0.76660698256E+00 -0.29168905632E+02 -0.99071005899E+02  0.10327863744E+03  0.00000000000E+00 0. -1.
      -12    1    3    3    0    0 -0.76660698256E+00  0.29168905632E+02 -0.16027249534E+02  0.33290921731E+02  0.00000000000E+00 0.  1.
</event>
<event>
 5   0  0.8936300E+00  0.8026369E+02  0.7957747E-01  0.1326858E+00
        1   -1    0    0  501    0  0.00000000000E+00  0.00000000000E+00  0.11266254581E+03  0.11266254581E+03  0.00000000000E+00 0. -1.
       -2   -1    0    0    0  501  0.00000000000E+00  0.00000000000E+00 -0.14295479061E+02  0.14295479061E+02  0.00000000000E+00 0.  1.
      -24    2    1    2    0    0  0.00000000000E+00  0.00000000000E+00  0.98367066747E+02  0.12695802487E+03  0.80263692029E+02 0.  0.
       11    1    3    3    0    0  0.11255312354E+02 -0.38248402282E+02  0.56422185140E+02  0.69087519201E+02  0.00000000000E+00 0. -1.
      -12    1    3    3    0    0 -0.11255312354E+02  0.38248402282E+02  0.41944881607E+02  0.57870505668E+02  0.00000000000E+00 0.  1.
</event>
<event>
 5   0  0.8936300E+00  0.7014176E+02  0.7957747E-01  0.1356461E+00
       -2   -1    0    0    0  501  0.00000000000E+00  0.00000000000E+00  0.31270395352E+02  0.31270395352E+02  0.00000000000E+00 0.  1.
        1   -1    0    0  501    0  0.00000000000E+00  0.00000000000E+00 -0.39333261969E+02  0.39333261969E+02  0.00000000000E+00 0. -1.
      -24    2    1    2    0    0  0.00000000000E+00  0.00000000000E+00 -0.80628666172E+01  0.70603657321E+02  0.70141760806E+02 0.  0.
       11    1    3    3    0    0  0.45542873378E+01  0.26036788057E+02 -0.27233402776E+02  0.37951470225E+02  0.00000000000E+00 0. -1.
      -12    1    3    3    0    0 -0.45542873378E+01 -0.26036788057E+02  0.19170536159E+02  0.32652187096E+02  0.00000000000E+00 0.  1.
</event>
<event>
 5   0  0.8936300E+00  0.7361223E+02  0.7957747E-01  0.1345705E+00
        1   -1    0    0  501    0  0.00000000000E+00  0.00000000000E+00  0.63256593762E+01  0.63256593762E+01  0.00000000000E+00 0. -1.
       -2   -1    0    0    0  501  0.00000000000E+00  0.00000000000E+00 -0.21415792022E+03  0.21415792022E+03  0.00000000000E+00 0.  1.
      -24    2    1    2    0    0  0.00000000000E+00  0.00000000000E+00 -0.20783226085E+03  0.22048357960E+03  0.73612228768E+02 0.  0.
       11    1    3    3    0    0  0.58348526624E+01 -0.35288830497E+02 -0.77917664829E+02  0.85735112736E+02  0.00000000000E+00 0. -1.
      -12    1    3    3    0    0 -0.58348526624E+01  0.35288830497E+02 -0.12991459602E+03  0.13474846686E+03  0.00000000000E+00 0.  1.
</event>
<event>
 5   0  0.8936300E+00  0.8078571E+02  0.7957747E-01  0.1325466E+00
        1   -1    0    0  501    0  0.00000000000E+00  0.00000000000E+00  0.72683374099E+01  0.72683374099E+01  0.00000000000E+00 0. -1.
       -2   -1    0    0    0  501  0.00000000000E+00  0.00000000000E+00 -0.22447814326E+03  0.22447814326E+03  0.00000000000E+00 0.  1.
      -24    2    1    2    0    0  0.00000000000E+00  0.00000000000E+00 -0.21720980585E+03  0.23174648067E+03  0.80785713746E+02 0.  0.
       11    1    3    3    0    0  0.17800939235E+02 -0.98142431191E+01 -0.84731639468E+01  0.22022427498E+02  0.00000000000E+00 0. -1.
      -12    1    3    3    0    0 -0.17800939235E+02  0.98142431191E+01 -0.20873664190E+03  0.20972405317E+03  0.00000000000E+00 0.  1.
</event>
<event>
 5   0  0.8936300E+00  0.8012776E+02  0.7957747E-01  0.1327222E+00
        1   -1    0    0  501    0  0.00000000000E+00  0.00000000000E+00  0.12752351649E+02  0.12752351649E+02  0.00000000000E+00 0. -1.
       -2   -1    0    0    0  501  0.00000000000E+00  0.00000000000E+00 -0.12586812292E+03  0.12586812292E+03  0.00000000000E+00 0.  1.
      -24    2    1    2    0    0  0.00000000000E+00  0.00000000000E+00 -0.11311577127E+03  0.13862047457E+03  0.80127762102E+02 0.  0.
       11    1    3    3    0    0  0.64594979425E+01 -0.36897413492E+02 -0.31971869963E+02  0.49247788834E+02  0.00000000000E+00 0. -1.
      -12    1    3    3    0    0 -0.64594979425E+01  0.36897413492E+02 -0.81143901305E+02  0.89372685733E+02  0.00000000000E+00 0.  1.
</event>
<event>
 5   0  0.8936300E+00  0.7534597E+02  0.7957747E-01  0.1340580E+00
        1   -1    0    0  501    0  0.00000000000E+00  0.00000000000E+00  0.81689929664E+02  0.81689929664E+02  0.00000000000E+00 0. -1.
       -2   -1    0    0    0  501  0.00000000000E+00  0.00000000000E+00 -0.17373669375E+02  0.17373669375E+02  0.00000000000E+00 0.  1.
      -24    2    1    2    0    0  0.00000000000E+00  0.00000000000E+00  0.64316260289E+02  0.99063599039E+02  0.75345970808E+02 0.  0.
       11    1    3    3    0    0  0.16870850515E+02  0.36627286612E+01  0.76182998276E+02  0.78114597898E+02  0.00000000000E+00 0. -1.
      -12    1    3    3    0    0 -0.16870850515E+02 -0.36627286612E+01 -0.11866737988E+02  0.20949001141E+02  0.00000000000E+00 0.  1.
</event>
<event>
 5   0  0.8936300E+00  0.8073649E+02  0.7957747E-01  0.1325597E+00
        1   -1    0    0  501    0  0.00000000000E+00  0.00000000000E+00  0.41240784965E+01  0.41240784965E+01  0.00000000000E+00 0. -1.
       -2   -1    0    0    0  501  0.00000000000E+00  0.00000000000E+00 -0.39514161534E+03  0.39514161534E+03  0.00000000000E+00 0.  1.
      -24    2    1    2    0    0  0.00000000000E+00  0.00000000000E+00 -0.39101753684E+03  0.39926569383E+03  0.80736485900E+02 0.  0.
       11    1    3    3    0    0  0.38703510325E+01 -0.12727828977E+02 -0.70276575493E+01  0.15045438452E+02  0.00000000000E+00 0. -1.
      -12    1    3    3    0    0 -0.38703510325E+01  0.12727828977E+02 -0.38398987929E+03  0.38422025538E+03  0.00000000000E+00 0.  1.
</event>
<event>
 5   0  0.8936300E+00  0.7832137E+02  0.7957747E-01  0.1332141E+00
        1   -1    0    0  501    0  0.00000000000E+00  0.00000000000E+00  0.48912831670E+02  0.48912831670E+02  0.00000000000E+00 0. -1.
       -2   -1    0    0    0  501  0.00000000000E+00  0.00000000000E+00 -0.31352904875E+02  0.31352904875E+02  0.00000000000E+00 0.  1.
      -24    2    1    2    0    0  0.00000000000E+00  0.00000000000E+00  0.17559926795E+02  0.80265736545E+02  0.78321372779E+02 0.  0.
       11    1    3    3    0    0  0.25743663700E+02  0.10354089522E+02  0.37099582315E+02  0.46328418908E+02  0.00000000000E+00 0. -1.
      -12    1    3    3    0    0 -0.25743663700E+02 -0.10354089522E+02 -0.19539655520E+02  0.33937317637E+02  0.00000000000E+00 0.  1.
</event>
<event>
 5   0  0.8936300E+00  0.8138011E+02  0.7957747E-01  0.1323897E+00
        1   -1    0    0  501    0  0.00000000000E+00  0.00000000000E+00  0.15735494096E+02  0.15735494096E+02  0.00000000000E+00 0. -1.
       -2   -1    0    0    0  501  0.00000000000E+00  0.00000000000E+00 -0.10521949715E+03  0.10521949715E+03  0.00000000000E+00 0.  1.
      -24    2    1    2    0    0  0.00000000000E+00  0.00000000000E+00 -0.89484003058E+02  0.12095499125E+03  0.81380114923E+02 0.  0.
       11    1    3    3    0    0 -0.15463183041E+02  0.37526519035E+02 -0.40452003684E+02  0.57303701999E+02  0.00000000000E+00 0. -1.
      -12    1    3    3    0    0  0.15463183041E+02 -0.37526519035E+02 -0.49031999374E+02  0.63651289251E+02  0.00000000000E+00 0.  1.
</event>
<event>
 5   0  0.8936300E+00  0.8085070E+02  0.7957747E-01  0.1325294E+00
        1   -1    0    0  501    0  0.00000000000E+00  0.00000000000E+00  0.13928992990E+03  0.13928992990E+03  0.00000000000E+00 0. -1.
       -2   -1    0    0    0  501  0.00000000000E+00  0.00000000000E+00 -0.11732427932E+02  0.11732427932E+02  0.00000000000E+00 0.  1.
      -24    2    1    2    0    0  0.00000000000E+00  0.00000000000E+00  0.12755750197E+03  0.15102235783E+03  0.80850703504E+02 0.  0.
       11    1    3    3    0    0  0.40404493977E+02 -0.10775304396E+01  0.62425498824E+02  0.74368186134E+02  0.00000000000E+00 0. -1.
      -12    1    3    3    0    0 -0.40404493977E+02  0.10775304396E+01  0.65132003145E+02  0.76654171700E+02  0.00000000000E+00 0.  1.
</event>
<event>
 5   0  0.8936300E+00  0.7924627E+02  0.7957747E-01  0.1329604E+00
        1   -1    0    0  501    0  0.00000000000E+00  0.00000000000E+00  0.34629745471E+01  0.34629745471E+01  0.00000000000E+00 0. -1.
       -2   -1    0    0    0  501  0.00000000000E+00  0.00000000000E+00 -0.45336538959E+03  0.45336538959E+03  0.00000000000E+00 0.  1.
      -24    2    1    2    0    0  0.00000000000E+00  0.00000000000E+00 -0.44990241504E+03  0.45682836414E+03  0.79246269430E+02 0.  0.
       11    1    3    3    0    0 -0.15808621666E+02 -0.67797221985E+01 -0.19182817315E+02  0.25765434835E+02  0.00000000000E+00 0. -1.
      -12    1    3    3    0    0  0.15808621666E+02  0.67797221985E+01 -0.43071959773E+03  0.43106292930E+03  0.00000000000E+00 0.  1.
</event>
<event>
 5   0  0.8936300E+00  0.8099948E+02  0.7957747E-01  0.1324900E+00
        1   -1    0    0  501    0  0.00000000000E+00  0.00000000000E+00  0.13387057793E+03  0.13387057793E+03  0.00000000000E+00 0. -1.
       -2   -1    0    0    0  501  0.00000000000E+00  0.00000000000E+00 -0.12252349370E+02  0.12252349370E+02  0.00000000000E+00 0.  1.
      -24    2    1    2    0    0  0.00000000000E+00  0.00000000000E+00  0.12161822856E+03  0.14612292730E+03  0.80999483731E+02 0.  0.
       11    1    3    3    0    0  0.18776091035E+02  0.13141088312E+02  0.12104751170E+03  0.12319792971E+03  0.00000000000E+00 0. -1.
      -12    1    3    3    0    0 -0.18776091035E+02 -0.13141088312E+02  0.57071685717E+00  0.22924997586E+02  0.00000000000E+00 0.  1.
</event>
<event>
 5   0  0.8936300E+00  0.8196727E+02  0.7957747E-01  0.1322361E+00
       -2   -1    0    0    0  501  0.00000000000E+00  0.00000000000E+00  0.11339173060E+03  0.11339173060E+03  0.00000000000E+00 0.  1.
        1   -1    0    0  501    0  0.00000000000E+00  0.00000000000E+00 -0.14812880495E+02  0.14812880495E+02  0.00000000000E+00 0. -1.
      -24    2    1    2    0    0  0.00000000000E+00  0.00000000000E+00  0.98578850108E+02  0.12820461110E+03  0.81967265528E+02 0.  0.
       11    1    3    3    0    0 -0.25891617461E+02  0.93054277308E+01  0.17787266197E+01  0.27570468048E+02  0.00000000000E+00 0. -1.
      -12    1    3    3    0    0  0.25891617461E+02 -0.93054277308E+01  0.96800123488E+02  0.10063414305E+03  0.00000000000E+00 0.  1.
</event>
<event>
 5   0  0.8936300E+00  0.7645596E+02  0.7957747E-01  0.1337381E+00
        1   -1    0    0  501    0  0.00000000000E+00  0.00000000000E+00  0.96867265281E+01  0.96867265281E+01  0.00000000000E+00 0. -1.
       -2   -1    0    0    0  501  0.00000000000E+00  0.00000000000E+00 -0.15086402339E+03  0.15086402339E+03  0.00000000000E+00 0.  1.
      -24    2    1    2    0    0  0.00000000000E+00  0.00000000000E+00 -0.14117729686E+03  0.16055074992E+03  0.76455962161E+02 0.  0.
       11    1    3    3    0    0 -0.30917955729E+02 -0.94194405181E+01 -0.27720989585E+02  0.42580501520E+02  0.00000000000E+00 0. -1.
      -12    1    3    3    0    0  0.30917955729E+02  0.94194405181E+01 -0.11345630728E+03  0.11797024840E+03  0.00000000000E+00 0.  1.
</event>
<event>
 5   0  0.8936300E+00  0.8179946E+02  0.7957747E-01  0.1322798E+00
        1   -1    0    0  501    0  0.00000000000E+00  0.00000000000E+00  0.30021145552E+02  0.30021145552E+02  0.00000000000E+00 0. -1.
       -2   -1    0    0    0  501  0.00000000000E+00  0.00000000000E+00 -0.55720328648E+02  0.55720328648E+02  0.00000000000E+00 0.  1.
      -24    2    1    2    0    0  0.00000000000E+00  0.00000000000E+00 -0.25699183095E+02  0.85741474200E+02  0.81799464462E+02 0.  0.
       11    1    3    3    0    0 -0.28623625934E+02 -0.15972928373E+02  0.12790237152E+02  0.35185743829E+02  0.00000000000E+00 0. -1.
      -12    1    3    3    0    0  0.28623625934E+02  0.15972928373E+02 -0.38489420247E+02  0.50555730371E+02  0.00000000000E+00 0.  1.
</event>
<event>
 5   0  0.8936300E+00  0.8019004E+02  0.7957747E-01  0.1327055E+00
        1   -1    0    0  501    0  0.00000000000E+00  0.00000000000E+00  0.53802715242E+02  0.53802715242E+02  0.00000000000E+00 0. -1.
       -2   -1    0    0    0  501  0.00000000000E+00  0.00000000000E+00 -0.29879732529E+02  0.29879732529E+02  0.00000000000E+00 0.  1.
      -24    2    1    2    0    0  0.00000000000E+00  0.00000000000E+00  0.23922982713E+02  0.83682447771E+02  0.80190042793E+02 0.  0.
       11    1    3    3    0    0 -0.19693354920E+02 -0.15906125464E+02  0.44408692331E+02  0.51117169423E+02  0.00000000000E+00 0. -1.
      -12    1    3    3    0    0  0.19693354920E+02  0.15906125464E+02 -0.20485709619E+02  0.32565278348E+02  0.00000000000E+00 0.  1.
</event>
<event>
 5   0  0.8936300E+00  0.8022539E+02  0.7957747E-01  0.1326960E+00
        1   -1    0    0  501    0  0.00000000000E+00  0.00000000000E+00  0.63671531915E+01  0.63671531915E+01  0.00000000000E+00 0. -1.
       -2   -1    0    0    0  501  0.00000000000E+00  0.00000000000E+00 -0.25270762516E+03  0.25270762516E+03  0.00000000000E+00 0.  1.
      -24    2    1    2    0    0  0.00000000000E+00  0.00000000000E+00 -0.24634047197E+03  0.25907477835E+03  0.80225386557E+02 0.  0.
       11    1    3    3    0    0  0.19536501512E+02 -0.11501494170E+02 -0.16305592806E+02  0.27925465372E+02  0.00000000000E+00 0. -1.
      -12    1    3    3    0    0 -0.19536501512E+02  0.11501494170E+02 -0.23003487917E+03  0.23114931298E+03  0.00000000000E+00 0.  1.
</event>
<event>
 5   0  0.8936300E+00  0.6497341E+02  0.7957747E-01  0.1373866E+00
        1   -1    0    0  501    0  0.00000000000E+00  0.00000000000E+00  0.21008480005E+02  0.21008480005E+02  0.00000000000E+00 0. -1.
       -2   -1    0    0    0  501  0.00000000000E+00  0.00000000000E+00 -0.50236182953E+02  0.50236182953E+02  0.00000000000E+00 0.  1.
      -24    2    1    2    0    0  0.00000000000E+00  0.00000000000E+00 -0.29227702948E+02  0.71244662958E+02  0.64973405178E+02 0.  0.
       11    1    3    3    0    0 -0.22570138509E+02  0.81685496121E+01  0.93909178955E+01  0.25774516368E+02  0.00000000000E+00 0. -1.
      -12    1    3    3    0    0  0.22570138509E+02 -0.81685496121E+01 -0.38618620843E+02  0.45470146590E+02  0.00000000000E+00 0.  1.
</event>
<event>
 5   0  0.8936300E+00  0.7048429E+02  0.7957747E-01  0.1355368E+00
        1   -1    0    0  501    0  0.00000000000E+00  0.00000000000E+00  0.63379211674E+01  0.63379211674E+01  0.00000000000E+00 0. -1.
       -2   -1    0    0    0  501  0.00000000000E+00  0.00000000000E+00 -0.19596467232E+03  0.19596467232E+03  0.00000000000E+00 0.  1.
      -24    2    1    2    0    0  0.00000000000E+00  0.00000000000E+00 -0.18962675116E+03  0.20230259349E+03  0.70484286044E+02 0.  0.
       11    1    3    3    0    0  0.11347654934E+02  0.24701557727E+02 -0.30437314718E+02  0.40808900425E+02  0.00000000000E+00 0. -1.
      -12    1    3    3    0    0 -0.11347654934E+02 -0.24701557727E+02 -0.15918943644E+03  0.16149369307E+03  0.00000000000E+00 0.  1.
</event>
<event>
 5   0  0.8936300E+00  0.6948963E+02  0.7957747E-01  0.1358562E+00
        1   -1    0    0  501    0  0.00000000000E+00  0.00000000000E+00  0.93349110495E+02  0.93349110495E+02  0.00000000000E+00 0. -1.
       -2   -1    0    0    0  501  0.00000000000E+00  0.00000000000E+00 -0.12932124400E+02  0.12932124400E+02  0.00000000000E+00 0.  1.
      -24    2    1    2    0    0  0.00000000000E+00  0.00000000000E+00  0.80416986095E+02  0.10628123489E+03  0.69489634033E+02 0.  0.
       11    1    3    3    0    0 -0.23747589481E+02 -0.25327716359E+02  0.38178815618E+02  0.51604875585E+02  0.00000000000E+00 0. -1.
      -12    1    3    3    0    0  0.23747589481E+02  0.25327716359E+02  0.42238170477E+02  0.54676359310E+02  0.00000000000E+00 0.  1.
</event>
<event>
 5   0  0.8936300E+00  0.8066092E+02  0.7957747E-01  0.1325798E+00
        1   -1    0    0  501    0  0.00000000000E+00  0.00000000000E+00  0.94172700292E+02  0.94172700292E+02  0.00000000000E+00 0. -1.
       -2   -1    0    0    0  501  0.00000000000E+00  0.00000000000E+00 -0.17271948788E+02  0.17271948788E+02  0.00000000000E+00 0.  1.
      -24    2    1    2    0    0  0.00000000000E+00  0.00000000000E+00  0.76900751505E+02  0.11144464908E+03  0.80660921311E+02 0.  0.
       11    1    3    3    0    0  0.22899842102E+02 -0.32745109340E+02  0.46005465802E+02  0.60935604023E+02  0.00000000000E+00 0. -1.
      -12    1    3    3    0    0 -0.22899842102E+02  0.32745109340E+02  0.30895285702E+02  0.50509045057E+02  0.00000000000E+00 0.  1.
</event>
<event>
 5   0  0.8936300E+00  0.7357708E+02  0.7957747E-01  0.1345810E+00
        1   -1    0    0  501    0  0.00000000000E+00  0.00000000000E+00  0.27706937881E+02  0.27706937881E+02  0.00000000000E+00 0. -1.
       -2   -1    0    0    0  501  0.00000000000E+00  0.00000000000E+00 -0.48846846653E+02  0.48846846653E+02  0.00000000000E+00 0.  1.
      -24    2    1    2    0    0  0.00000000000E+00  0.00000000000E+00 -0.21139908773E+02  0.76553784534E+02  0.73577076481E+02 0.  0.
       11    1    3    3    0    0 -0.19596463968E+02  0.58229431216E+01  0.21252869633E+02  0.29489193517E+02  0.00000000000E+00 0. -1.
      -12    1    3    3    0    0  0.19596463968E+02 -0.58229431216E+01 -0.42392778405E+02  0.47064591017E+02  0.00000000000E+00 0.  1.
</event>
<event>
 5   0  0.8936300E+00  0.8314815E+02  0.7957747E-01  0.1319316E+00
        1   -1    0    0  501    0  0.00000000000E+00  0.00000000000E+00  0.65309918347E+02  0.65309918347E+02  0.00000000000E+00 0. -1.
       -2   -1    0    0    0  501  0.00000000000E+00  0.00000000000E+00 -0.26464644771E+02  0.26464644771E+02  0.00000000000E+00 0.  1.
      -24    2    1    2    0    0  0.00000000000E+00  0.00000000000E+00  0.38845273576E+02  0.91774563118E+02  0.83148151852E+02 0.  0.
       11    1    3    3    0    0 -0.20893340757E+02  0.16887614271E+02  0.54442590824E+02  0.60710121886E+02  0.00000000000E+00 0. -1.
      -12    1    3    3    0    0  0.20893340757E+02 -0.16887614271E+02 -0.15597317248E+02  0.31064441233E+02  0.00000000000E+00 0.  1.
</event>
<event>
 5   0  0.8936300E+00  0.8108560E+02  0.7957747E-01  0.1324673E+00
        1   -1    0    0  501    0  0.00000000000E+00  0.00000000000E+00  0.63773347932E+01  0.63773347932E+01  0.00000000000E+00 0. -1.
       -2   -1    0    0    0  501  0.00000000000E+00  0.00000000000E+00 -0.25774383425E+03  0.25774383425E+03  0.00000000000E+00 0.  1.
      -24    2    1    2    0    0  0.00000000000E+00  0.00000000000E+00 -0.25136649946E+03  0.26412116905E+03  0.81085602222E+02 0.  0.
       11    1    3    3    0    0  0.95043932623E+01 -0.42403455517E+01  0.19520778036E+01  0.10588891794E+02  0.00000000000E+00 0. -1.
      -12    1    3    3    0    0 -0.95043932623E+01  0.42403455517E+01 -0.25331857726E+03  0.25353227725E+03  0.00000000000E+00 0.  1.
</event>
<event>
 5   0  0.8936300E+00  0.7659903E+02  0.7957747E-01  0.1336973E+00
        1   -1    0    0  501    0  0.00000000000E+00  0.00000000000E+00  0.71743403822E+02  0.71743403822E+02  0.00000000000E+00 0. -1.
       -2   -1    0    0    0  501  0.00000000000E+00  0.00000000000E+00 -0.20445821092E+02  0.20445821092E+02  0.00000000000E+00 0.  1.
      -24    2    1    2    0    0  0.00000000000E+00  0.00000000000E+00  0.51297582730E+02  0.92189224914E+02  0.76599028690E+02 0.  0.
       11    1    3    3    0    0  0.18471542459E+02 -0.79627511760E+01  0.64874443371E+02  0.67921253594E+02  0.00000000000E+00 0. -1.
      -12    1    3    3    0    0 -0.18471542459E+02  0.79627511760E+01 -0.13576860641E+02  0.24267971319E+02  0.00000000000E+00 0.  1.
</event>
<event>
 5   0  0.8936300E+00  0.8161740E+02  0.7957747E-01  0.1323274E+00
        1   -1    0    0  501    0  0.00000000000E+00  0.00000000000E+00  0.73679572918E+01  0.73679572918E+01  0.00000000000E+00 0. -1.
       -2   -1    0    0    0  501  0.00000000000E+00  0.00000000000E+00 -0.22602600233E+03  0.22602600233E+03  0.00000000000E+00 0.  1.
      -24    2    1    2    0    0  0.00000000000E+00  0.00000000000E+00 -0.21865804504E+03  0.23339395962E+03  0.81617398440E+02 0.  0.
       11    1    3    3    0    0  0.19661812584E+02 -0.33850025087E+02 -0.76357967888E+02  0.85807635630E+02  0.00000000000E+00 0. -1.
      -12    1    3    3    0    0 -0.19661812584E+02  0.33850025087E+02 -0.14230007715E+03  0.14758632399E+03  0.00000000000E+00 0.  1.
</event>
<event>
 5   0  0.8936300E+00  0.7953267E+02  0.7957747E-01  0.1328826E+00
        1   -1    0    0  501    0  0.00000000000E+00  0.00000000000E+00  0.25266096049E+03  0.25266096049E+03  0.00000000000E+00 0. -1.
       -2   -1    0    0    0  501  0.00000000000E+00  0.00000000000E+00 -0.62588283533E+01  0.62588283533E+01  0.00000000000E+00 0.  1.
      -24    2    1    2    0    0  0.00000000000E+00  0.00000000000E+00  0.24640213214E+03  0.25891978885E+03  0.79532674627E+02 0.  0.
       11    1    3    3    0    0 -0.35665919463E+02 -0.14348837255E+02  0.15630736804E+03  0.16096564927E+03  0.00000000000E+00 0. -1.
      -12    1    3    3    0    0  0.35665919463E+02  0.14348837255E+02  0.90094764098E+02  0.97954139574E+02  0.00000000000E+00 0.  1.
</event>
<event>
 5   0  0.8936300E+00  0.7450922E+02  0.7957747E-01  0.1343034E+00
        1   -1    0    0  501    0  0.00000000000E+00  0.00000000000E+00  0.52364625711E+01  0.52364625711E+01  0.00000000000E+00 0. -1.
       -2   -1    0    0    0  501  0.00000000000E+00  0.00000000000E+00 -0.26504645259E+03  0.26504645259E+03  0.00000000000E+00 0.  1.
      -24    2    1    2    0    0  0.00000000000E+00  0.00000000000E+00 -0.25980999001E+03  0.27028291516E+03  0.74509216304E+02 0.  0.
       11    1    3    3    0    0 -0.20875439943E+02 -0.76495031317E+01 -0.21466903659E+02  0.30905126496E+02  0.00000000000E+00 0. -1.
      -12    1    3    3    0    0  0.20875439943E+02  0.76495031317E+01 -0.23834308635E+03  0.23937778866E+03  0.00000000000E+00 0.  1.
</event>
<event>
 5   0  0.8936300E+00  0.8516226E+02  0.7957747E-01  0.1314252E+00
        1   -1    0    0  501    0  0.00000000000E+00  0.00000000000E+00  0.79948332120E+01  0.79948332120E+01  0.00000000000E+00 0. -1.
       -2   -1    0    0    0  501  0.00000000000E+00  0.00000000000E+00 -0.22679057622E+03  0.22679057622E+03  0.00000000000E+00 0.  1.
      -24    2    1    2    0    0  0.00000000000E+00  0.00000000000E+00 -0.21879574301E+03  0.23478540944E+03  0.85162264671E+02 0.  0.
       11    1    3    3    0    0 -0.15369256672E+02 -0.56597427746E+01 -0.10363871338E+01  0.16410997447E+02  0.00000000000E+00 0. -1.
      -12    1    3    3    0    0  0.15369256672E+02  0.56597427746E+01 -0.21775935588E+03  0.21837441199E+03  0.00000000000E+00 0.  1.
</event>
<event>
 5   0  0.8936300E+00  0.8096089E+02  0.7957747E-01  0.1325002E+00
        1   -1    0    0  501    0  0.00000000000E+00  0.00000000000E+00  0.11525428460E+02  0.11525428460E+02  0.00000000000E+00 0. -1.
       -2   -1    0    0    0  501  0.00000000000E+00  0.00000000000E+00 -0.14217834744E+03  0.14217834744E+03  0.00000000000E+00 0.  1.
      -24    2    1    2    0    0  0.00000000000E+00  0.00000000000E+00 -0.13065291898E+03  0.15370377590E+03  0.80960888632E+02 0.  0.
       11    1    3    3    0    0  0.35694684272E+02 -0.11787387171E+02 -0.36810255931E+02  0.52612241192E+02  0.00000000000E+00 0. -1.
      -12    1    3    3    0    0 -0.35694684272E+02  0.11787387171E+02 -0.93842663051E+02  0.10109153471E+03  0.00000000000E+00 0.  1.
</event>
<event>
 5   0  0.8936300E+00  0.7937864E+02  0.7957747E-01  0.1329244E+00
        1   -1    0    0  501    0  0.00000000000E+00  0.00000000000E+00  0.12375338758E+03  0.12375338758E+03  0.00000000000E+00 0. -1.
       -2   -1    0    0    0  501  0.00000000000E+00  0.00000000000E+00 -0.12728881339E+02  0.12728881339E+02  0.00000000000E+00 0.  1.
      -24    2    1    2    0    0  0.00000000000E+00  0.00000000000E+00  0.11102450624E+03  0.13648226892E+03  0.79378641604E+02 0.  0.
       11    1    3    3    0    0 -0.22038678383E+02 -0.59739705486E+01  0.11132868592E+03  0.11364624049E+03  0.00000000000E+00 0. -1.
      -12    1    3    3    0    0  0.22038678383E+02  0.59739705486E+01 -0.30417968076E+00  0.22836028426E+02  0.00000000000E+00 0.  1.
</event>
<event>
 5   0  0.8936300E+00  0.8068989E+02  0.7957747E-01  0.1325721E+00
        1   -1    0    0  501    0  0.00000000000E+00  0.00000000000E+00  0.12226940087E+03  0.12226940087E+03  0.00000000000E+00 0. -1.
       -2   -1    0    0    0  501  0.00000000000E+00  0.00000000000E+00 -0.13312526634E+02  0.13312526634E+02  0.00000000000E+00 0.  1.
      -24    2    1    2    0    0  0.00000000000E+00  0.00000000000E+00  0.10895687423E+03  0.13558192750E+03  0.80689891699E+02 0.  0.
       11    1    3    3    0    0 -0.14056241656E+02 -0.13746885371E+02  0.11367500579E+03  0.11536273978E+03  0.00000000000E+00 0. -1.
      -12    1    3    3    0    0  0.14056241656E+02  0.13746885371E+02 -0.47181315579E+01  0.20219187726E+02  0.00000000000E+00 0.  1.
</event>
<event>
 5   0  0.8936300E+00  0.8379658E+02  0.7957747E-01  0.1317668E+00
        1   -1    0    0  501    0  0.00000000000E+00  0.00000000000E+00  0.11119636953E+02  0.11119636953E+02  0.00000000000E+00 0. -1.
       -2   -1    0    0    0  501  0.00000000000E+00  0.00000000000E+00 -0.15787088167E+03  0.15787088167E+03  0.00000000000E+00 0.  1.
      -24    2    1    2    0    0  0.00000000000E+00  0.00000000000E+00 -0.14675124472E+03  0.16899051863E+03  0.83796584409E+02 0.  0.
       11    1    3    3    0    0  0.24471240814E+02 -0.33748929433E+02 -0.64906779784E+02  0.77140922517E+02  0.00000000000E+00 0. -1.
      -12    1    3    3    0    0 -0.24471240814E+02  0.33748929433E+02 -0.81844464935E+02  0.91849596109E+02  0.00000000000E+00 0.  1.
</event>
<event>
 5   0  0.8936300E+00  0.7934083E+02  0.7957747E-01  0.1329346E+00
        1   -1    0    0  501    0  0.00000000000E+00  0.00000000000E+00  0.68044209089E+01  0.68044209089E+01  0.00000000000E+00 0. -1.
       -2   -1    0    0    0  501  0.00000000000E+00  0.00000000000E+00 -0.23128227462E+03  0.23128227462E+03  0.00000000000E+00 0.  1.
      -24    2    1    2    0    0  0.00000000000E+00  0.00000000000E+00 -0.22447785372E+03  0.23808669553E+03  0.79340833001E+02 0.  0.
       11    1    3    3    0    0  0.35786958880E+02  0.15979616018E+02 -0.93816942458E+02  0.10167434901E+03  0.00000000000E+00 0. -1.
      -12    1    3    3    0    0 -0.35786958880E+02 -0.15979616018E+02 -0.13066091126E+03  0.13641234653E+03  0.00000000000E+00 0.  1.
</event>
<event>
 5   0  0.8936300E+00  0.8128189E+02  0.7957747E-01  0.1324155E+00
        1   -1    0    0  501    0  0.00000000000E+00  0.00000000000E+00  0.83132270110E+01  0.83132270110E+01  0.00000000000E+00 0. -1.
       -2   -1    0    0    0  501  0.00000000000E+00  0.00000000000E+00 -0.19868175211E+03  0.19868175211E+03  0.00000000000E+00 0.  1.
      -24    2    1    2    0    0  0.00000000000E+00  0.00000000000E+00 -0.19036852510E+03  0.20699497912E+03  0.81281892405E+02 0.  0.
       11    1    3    3    0    0 -0.36545955284E+02  0.82944483684E+01 -0.55137992638E+02  0.66667855474E+02  0.00000000000E+00 0. -1.
      -12    1    3    3    0    0  0.36545955284E+02 -0.82944483684E+01 -0.13523053246E+03  0.14032712365E+03  0.00000000000E+00 0.  1.
</event>
<event>
 5   0  0.8936300E+00  0.8137844E+02  0.7957747E-01  0.1323901E+00
        1   -1    0    0  501    0  0.00000000000E+00  0.00000000000E+00  0.49971759594E+01  0.49971759594E+01  0.00000000000E+00 0. -1.
       -2   -1    0    0    0  501  0.00000000000E+00  0.00000000000E+00 -0.33130963586E+03  0.33130963586E+03  0.00000000000E+00 0.  1.
      -24    2    1    2    0    0  0.00000000000E+00  0.00000000000E+00 -0.32631245990E+03  0.33630681182E+03  0.81378438113E+02 0.  0.
       11    1    3    3    0    0 -0.10199680218E+02  0.35114811690E+02 -0.89399636318E+02  0.96588707675E+02  0.00000000000E+00 0. -1.
      -12    1    3    3    0    0  0.10199680218E+02 -0.35114811690E+02 -0.23691282359E+03  0.23971810415E+03  0.00000000000E+00 0.  1.
</event>
<event>
 5   0  0.8936300E+00  0.8023345E+02  0.7957747E-01  0.1326938E+00
        1   -1    0    0  501    0  0.00000000000E+00  0.00000000000E+00  0.41199667198E+01  0.41199667198E+01  0.00000000000E+00 0. -1.
       -2   -1    0    0    0  501  0.00000000000E+00  0.00000000000E+00 -0.39062246591E+03  0.39062246591E+03  0.00000000000E+00 0.  1.
      -24    2    1    2    0    0  0.00000000000E+00  0.00000000000E+00 -0.38650249919E+03  0.39474243263E+03  0.80233448376E+02 0.  0.
       11    1    3    3    0    0 -0.32374301441E+02 -0.22293106361E+02 -0.23269467120E+03  0.23599128795E+03  0.00000000000E+00 0. -1.
      -12    1    3    3    0    0  0.32374301441E+02  0.22293106361E+02 -0.15380782799E+03  0.15875114468E+03  0.00000000000E+00 0.  1.
</event>
<event>
 5   0  0.8936300E+00  0.7997443E+02  0.7957747E-01  0.1327634E+00
       -4   -1    0    0    0  501  0.00000000000E+00  0.00000000000E+00  0.41860381282E+02  0.41860381282E+02  0.00000000000E+00 0.  1.
        3   -1    0    0  501    0  0.00000000000E+00  0.00000000000E+00 -0.38197864538E+02  0.38197864538E+02  0.00000000000E+00 0. -1.
      -24    2    1    2    0    0  0.00000000000E+00  0.00000000000E+00  0.36625167442E+01  0.80058245820E+02  0.79974425255E+02 0.  0.
       11    1    3    3    0    0  0.28880739539E+02 -0.16254908983E+02 -0.20567581168E+02  0.39004417409E+02  0.00000000000E+00 0. -1.
      -12    1    3    3    0    0 -0.28880739539E+02  0.16254908983E+02  0.24230097912E+02  0.41053828411E+02  0.00000000000E+00 0.  1.
</event>
<event>
 5   0  0.8936300E+00  0.7990966E+02  0.7957747E-01  0.1327808E+00
        1   -1    0    0  501    0  0.00000000000E+00  0.00000000000E+00  0.69388764535E+01  0.69388764535E+01  0.00000000000E+00 0. -1.
       -2   -1    0    0    0  501  0.00000000000E+00  0.00000000000E+00 -0.23006439805E+03  0.23006439805E+03  0.00000000000E+00 0.  1.
      -24    2    1    2    0    0  0.00000000000E+00  0.00000000000E+00 -0.22312552159E+03  0.23700327450E+03  0.79909659851E+02 0.  0.
       11    1    3    3    0    0 -0.69548253827E+01  0.36298067994E+02 -0.66536963111E+02  0.76112330119E+02  0.00000000000E+00 0. -1.
      -12    1    3    3    0    0  0.69548253827E+01 -0.36298067994E+02 -0.15658855848E+03  0.16089094438E+03  0.00000000000E+00 0.  1.
</event>
<event>
 5   0  0.8936300E+00  0.5531946E+02  0.7957747E-01  0.1411939E+00
        1   -1    0    0  501    0  0.00000000000E+00  0.00000000000E+00  0.63130043540E+01  0.63130043540E+01  0.00000000000E+00 0. -1.
       -2   -1    0    0    0  501  0.00000000000E+00  0.00000000000E+00 -0.12118805717E+03  0.12118805717E+03  0.00000000000E+00 0.  1.
      -24    2    1    2    0    0  0.00000000000E+00  0.00000000000E+00 -0.11487505282E+03  0.12750106153E+03  0.55319462492E+02 0.  0.
       11    1    3    3    0    0 -0.55776637685E+01  0.10203596697E+02  0.40535761930E+00  0.11635636358E+02  0.00000000000E+00 0. -1.
      -12    1    3    3    0    0  0.55776637685E+01 -0.10203596697E+02 -0.11528041044E+03  0.11586542517E+03  0.00000000000E+00 0.  1.
</event>
<event>
 5   0  0.8936300E+00  0.8104554E+02  0.7957747E-01  0.1324778E+00
        1   -1    0    0  501    0  0.00000000000E+00  0.00000000000E+00  0.54580315127E+01  0.54580315127E+01  0.00000000000E+00 0. -1.
       -2   -1    0    0    0  501  0.00000000000E+00  0.00000000000E+00 -0.30085847014E+03  0.30085847014E+03  0.00000000000E+00 0.  1.
      -24    2    1    2    0    0  0.00000000000E+00  0.00000000000E+00 -0.29540043863E+03  0.30631650166E+03  0.81045543022E+02 0.  0.
       11    1    3    3    0    0  0.29180417915E+02  0.26269907192E+02 -0.10981209493E+03  0.11662032844E+03  0.00000000000E+00 0. -1.
      -12    1    3    3    0    0 -0.29180417915E+02 -0.26269907192E+02 -0.18558834370E+03  0.18969617321E+03  0.00000000000E+00 0.  1.
</event>
<event>
 5   0  0.8936300E+00  0.7899677E+02  0.7957747E-01  0.1330284E+00
        1   -1    0    0  501    0  0.00000000000E+00  0.00000000000E+00  0.32467472984E+01  0.32467472984E+01  0.00000000000E+00 0. -1.
       -2   -1    0    0    0  501  0.00000000000E+00  0.00000000000E+00 -0.48051861279E+03  0.48051861279E+03  0.00000000000E+00 0.  1.
      -24    2    1    2    0    0  0.00000000000E+00  0.00000000000E+00 -0.47727186550E+03  0.48376536009E+03  0.78996772286E+02 0.  0.
       11    1    3    3    0    0 -0.18779230443E+02  0.17196858138E+02 -0.53726612943E+02  0.59455364469E+02  0.00000000000E+00 0. -1.
      -12    1    3    3    0    0  0.18779230443E+02 -0.17196858138E+02 -0.42354525255E+03  0.42430999562E+03  0.00000000000E+00 0.  1.
</event>
<event>
 5   0  0.8936300E+00  0.7693799E+02  0.7957747E-01  0.1336011E+00
       -2   -1    0    0    0  501  0.00000000000E+00  0.00000000000E+00  0.23550080873E+02  0.23550080873E+02  0.00000000000E+00 0.  1.
        1   -1    0    0  501    0  0.00000000000E+00  0.00000000000E+00 -0.62839006975E+02  0.62839006975E+02  0.00000000000E+00 0. -1.
      -24    2    1    2    0    0  0.00000000000E+00  0.00000000000E+00 -0.39288926102E+02  0.86389087849E+02  0.76937993119E+02 0.  0.
       11    1    3    3    0    0 -0.28704162463E+02 -0.18963068835E+01 -0.48322844114E+02  0.56237195750E+02  0.00000000000E+00 0. -1.
      -12    1    3    3    0    0  0.28704162463E+02  0.18963068835E+01  0.90339180121E+01  0.30151892099E+02  0.00000000000E+00 0.  1.
</event>
<event>
 5   0  0.8936300E+00  0.8185367E+02  0.7957747E-01  0.1322657E+00
        1   -1    0    0  501    0  0.00000000000E+00  0.00000000000E+00  0.37711013112E+02  0.37711013112E+02  0.00000000000E+00 0. -1.
       -2   -1    0    0    0  501  0.00000000000E+00  0.00000000000E+00 -0.44416882225E+02  0.44416882225E+02  0.00000000000E+00 0.  1.
      -24    2    1    2    0    0  0.00000000000E+00  0.00000000000E+00 -0.67058691130E+01  0.82127895337E+02  0.81853665232E+02 0.  0.
       11    1    3    3    0    0 -0.17139874881E+02  0.73308857227E+01  0.33203845434E+02  0.38079030293E+02  0.00000000000E+00 0. -1.
      -12    1    3    3    0    0  0.17139874881E+02 -0.73308857227E+01 -0.39909714547E+02  0.44048865044E+02  0.00000000000E+00 0.  1.
</event>
<event>
 5   0  0.8936300E+00  0.7783183E+02  0.7957747E-01  0.1333500E+00
       -2   -1    0    0    0  501  0.00000000000E+00  0.00000000000E+00  0.13918102486E+02  0.13918102486E+02  0.00000000000E+00 0.  1.
        1   -1    0    0  501    0  0.00000000000E+00  0.00000000000E+00 -0.10881142982E+03  0.10881142982E+03  0.00000000000E+00 0. -1.
      -24    2    1    2    0    0  0.00000000000E+00  0.00000000000E+00 -0.94893327338E+02  0.12272953231E+03  0.77831834926E+02 0.  0.
       11    1    3    3    0    0  0.27398569974E+02 -0.23277930780E+02 -0.70936245713E+02  0.79526691456E+02  0.00000000000E+00 0. -1.
      -12    1    3    3    0    0 -0.27398569974E+02  0.23277930780E+02 -0.23957081625E+02  0.43202840855E+02  0.00000000000E+00 0.  1.
</event>
<event>
 5   0  0.8936300E+00  0.7258347E+02  0.7957747E-01  0.1348822E+00
        1   -1    0    0  501    0  0.00000000000E+00  0.00000000000E+00  0.29302443051E+02  0.29302443051E+02  0.00000000000E+00 0. -1.
       -2   -1    0    0    0  501  0.00000000000E+00  0.00000000000E+00 -0.44948131425E+02  0.44948131425E+02  0.00000000000E+00 0.  1.
      -24    2    1    2    0    0  0.00000000000E+00  0.00000000000E+00 -0.15645688374E+02  0.74250574475E+02  0.72583470881E+02 0.  0.
       11    1    3    3    0    0  0.26973446138E+02  0.81753600984E+01  0.15564603682E+02  0.32197207909E+02  0.00000000000E+00 0. -1.
      -12    1    3    3    0    0 -0.26973446138E+02 -0.81753600984E+01 -0.31210292056E+02  0.42053366566E+02  0.00000000000E+00 0.  1.
</event>
<event>
 5   0  0.8936300E+00  0.7918134E+02  0.7957747E-01  0.1329780E+00
        1   -1    0    0  501    0  0.00000000000E+00  0.00000000000E+00  0.11074786246E+03  0.11074786246E+03  0.00000000000E+00 0. -1.
       -2   -1    0    0    0  501  0.00000000000E+00  0.00000000000E+00 -0.14153059107E+02  0.14153059107E+02  0.00000000000E+00 0.  1.
      -24    2    1    2    0    0  0.00000000000E+00  0.00000000000E+00  0.96594803356E+02  0.12490092157E+03  0.79181337282E+02 0.  0.
       11    1    3    3    0    0 -0.12630729198E+02  0.37514741809E+02  0.47149175021E+02  0.61562455102E+02  0.00000000000E+00 0. -1.
      -12    1    3    3    0    0  0.12630729198E+02 -0.37514741809E+02  0.49445628336E+02  0.63338466468E+02  0.00000000000E+00 0.  1.
</event>
<event>
 5   0  0.8936300E+00  0.8092046E+02  0.7957747E-01  0.1325109E+00
        1   -1    0    0  501    0  0.00000000000E+00  0.00000000000E+00  0.20289070295E+02  0.20289070295E+02  0.00000000000E+00 0. -1.
       -2   -1    0    0    0  501  0.00000000000E+00  0.00000000000E+00 -0.80685314244E+02  0.80685314244E+02  0.00000000000E+00 0.  1.
      -24    2    1    2    0    0  0.00000000000E+00  0.00000000000E+00 -0.60396243949E+02  0.10097438454E+03  0.80920455077E+02 0.  0.
       11    1    3    3    0    0 -0.10203056701E+02  0.18118884167E+02  0.13111101745E+02  0.24582459569E+02  0.00000000000E+00 0. -1.
      -12    1    3    3    0    0  0.10203056701E+02 -0.18118884167E+02 -0.73507345694E+02  0.76391924969E+02  0.00000000000E+00 0.  1.
</event>
<event>
 5   0  0.8936300E+00  0.8088870E+02  0.7957747E-01  0.1325193E+00
        1   -1    0    0  501    0  0.00000000000E+00  0.00000000000E+00  0.59004895998E+01  0.59004895998E+01  0.00000000000E+00 0. -1.
       -2   -1    0    0    0  501  0.00000000000E+00  0.00000000000E+00 -0.27722196547E+03  0.27722196547E+03  0.00000000000E+00 0.  1.
      -24    2    1    2    0    0  0.00000000000E+00  0.00000000000E+00 -0.27132147588E+03  0.28312245507E+03  0.80888696964E+02 0.  0.
       11    1    3    3    0    0  0.17987960883E+02 -0.27728984538E+02 -0.54077838525E+02  0.63378828798E+02  0.00000000000E+00 0. -1.
      -12    1    3    3    0    0 -0.17987960883E+02  0.27728984538E+02 -0.21724363735E+03  0.21974362628E+03  0.00000000000E+00 0.  1.
</event>
<event>
 5   0  0.8936300E+00  0.8577640E+02  0.7957747E-01  0.1312740E+00
        1   -1    0    0  501    0  0.00000000000E+00  0.00000000000E+00  0.10617037277E+02  0.10617037277E+02  0.00000000000E+00 0. -1.
       -2   -1    0    0    0  501  0.00000000000E+00  0.00000000000E+00 -0.17324961222E+03  0.17324961222E+03  0.00000000000E+00 0.  1.
      -24    2    1    2    0    0  0.00000000000E+00  0.00000000000E+00 -0.16263257494E+03  0.18386664950E+03  0.85776397479E+02 0.  0.
       11    1    3    3    0    0 -0.32786324090E+02 -0.18980464029E+02 -0.38220834516E+02  0.53814805149E+02  0.00000000000E+00 0. -1.
      -12    1    3    3    0    0  0.32786324090E+02  0.18980464029E+02 -0.12441174043E+03  0.13005184435E+03  0.00000000000E+00 0.  1.
</event>
<event>
 5   0  0.8936300E+00  0.8284301E+02  0.7957747E-01  0.1320097E+00
        1   -1    0    0  501    0  0.00000000000E+00  0.00000000000E+00  0.59671885583E+02  0.59671885583E+02  0.00000000000E+00 0. -1.
       -2   -1    0    0    0  501  0.00000000000E+00  0.00000000000E+00 -0.28752920235E+02  0.28752920235E+02  0.00000000000E+00 0.  1.
      -24    2    1    2    0    0  0.00000000000E+00  0.00000000000E+00  0.30918965348E+02  0.88424805819E+02  0.82843007345E+02 0.  0.
       11    1    3    3    0    0 -0.18594414164E+02  0.17898500764E+02  0.50040428887E+02  0.56304112558E+02  0.00000000000E+00 0. -1.
      -12    1    3    3    0    0  0.18594414164E+02 -0.17898500764E+02 -0.19121463539E+02  0.32120693261E+02  0.00000000000E+00 0.  1.
</event>
<event>
 5   0  0.8936300E+00  0.8085753E+02  0.7957747E-01  0.1325276E+00
        1   -1    0    0  501    0  0.00000000000E+00  0.00000000000E+00  0.30694042719E+02  0.30694042719E+02  0.00000000000E+00 0. -1.
       -2   -1    0    0    0  501  0.00000000000E+00  0.00000000000E+00 -0.53250890640E+02  0.53250890640E+02  0.00000000000E+00 0.  1.
      -24    2    1    2    0    0  0.00000000000E+00  0.00000000000E+00 -0.22556847921E+02  0.83944933358E+02  0.80857531797E+02 0.  0.
       11    1    3    3    0    0  0.32840301307E+02 -0.13561098456E+02  0.87479214367E+01  0.36591186244E+02  0.00000000000E+00 0. -1.
      -12    1    3    3    0    0 -0.32840301307E+02  0.13561098456E+02 -0.31304769358E+02  0.47353747115E+02  0.00000000000E+00 0.  1.
</event>
<event>
 5   0  0.8936300E+00  0.7339658E+02  0.7957747E-01  0.1346353E+00
        1   -1    0    0  501    0  0.00000000000E+00  0.00000000000E+00  0.27281410489E+02  0.27281410489E+02  0.00000000000E+00 0. -1.
       -2   -1    0    0    0  501  0.00000000000E+00  0.00000000000E+00 -0.49365652371E+02  0.49365652371E+02  0.00000000000E+00 0.  1.
      -24    2    1    2    0    0  0.00000000000E+00  0.00000000000E+00 -0.22084241883E+02  0.76647062860E+02  0.73396583745E+02 0.  0.
       11    1    3    3    0    0 -0.36068629208E+02 -0.47902672850E+01 -0.60478592588E+01  0.36884539785E+02  0.00000000000E+00 0. -1.
      -12    1    3    3    0    0  0.36068629208E+02  0.47902672850E+01 -0.16036382624E+02  0.39762523074E+02  0.00000000000E+00 0.  1.
</event>
<event>
 5   0  0.8936300E+00  0.8118481E+02  0.7957747E-01  0.1324411E+00
        1   -1    0    0  501    0  0.00000000000E+00  0.00000000000E+00  0.20444031240E+02  0.20444031240E+02  0.00000000000E+00 0. -1.
       -2   -1    0    0    0  501  0.00000000000E+00  0.00000000000E+00 -0.80597775691E+02  0.80597775691E+02  0.00000000000E+00 0.  1.
      -24    2    1    2    0    0  0.00000000000E+00  0.00000000000E+00 -0.60153744450E+02  0.10104180693E+03  0.81184812475E+02 0.  0.
       11    1    3    3    0    0 -0.28813352102E+02  0.23665541365E+02 -0.10106094730E+02  0.38631596629E+02  0.00000000000E+00 0. -1.
      -12    1    3    3    0    0  0.28813352102E+02 -0.23665541365E+02 -0.50047649720E+02  0.62410210302E+02  0.00000000000E+00 0.  1.
</event>
<event>
 5   0  0.8936300E+00  0.8000499E+02  0.7957747E-01  0.1327551E+00
        1   -1    0    0  501    0  0.00000000000E+00  0.00000000000E+00  0.15986784643E+03  0.15986784643E+03  0.00000000000E+00 0. -1.
       -2   -1    0    0    0  501  0.00000000000E+00  0.00000000000E+00 -0.10009516193E+02  0.10009516193E+02  0.00000000000E+00 0.  1.
      -24    2    1    2    0    0  0.00000000000E+00  0.00000000000E+00  0.14985833024E+03  0.16987736262E+03  0.80004994784E+02 0.  0.
       11    1    3    3    0    0 -0.64283516152E+01  0.28511427591E+02  0.13292281279E+03  0.13609812405E+03  0.00000000000E+00 0. -1.
      -12    1    3    3    0    0  0.64283516152E+01 -0.28511427591E+02  0.16935517443E+02  0.33779238577E+02  0.00000000000E+00 0.  1.
</event>
<event>
 5   0  0.8936300E+00  0.7740772E+02  0.7957747E-01  0.1334687E+00
        1   -1    0    0  501    0  0.00000000000E+00  0.00000000000E+00  0.12689477196E+03  0.12689477196E+03  0.00000000000E+00 0. -1.
       -2   -1    0    0    0  501  0.00000000000E+00  0.00000000000E+00 -0.11804968817E+02  0.11804968817E+02  0.00000000000E+00 0.  1.
      -24    2    1    2    0    0  0.00000000000E+00  0.00000000000E+00  0.11508980314E+03  0.13869974077E+03  0.77407721217E+02 0.  0.
       11    1    3    3    0    0  0.33883781489E+02  0.44499120956E+00  0.91051231718E+02  0.97152640019E+02  0.00000000000E+00 0. -1.
      -12    1    3    3    0    0 -0.33883781489E+02 -0.44499120956E+00  0.24038571422E+02  0.41547100756E+02  0.00000000000E+00 0.  1.
</event>
<event>
 5   0  0.8936300E+00  0.8126088E+02  0.7957747E-01  0.1324210E+00
        1   -1    0    0  501    0  0.00000000000E+00  0.00000000000E+00  0.11730256176E+02  0.11730256176E+02  0.00000000000E+00 0. -1.
       -2   -1    0    0    0  501  0.00000000000E+00  0.00000000000E+00 -0.14073288018E+03  0.14073288018E+03  0.00000000000E+00 0.  1.
      -24    2    1    2    0    0  0.00000000000E+00  0.00000000000E+00 -0.12900262401E+03  0.15246313636E+03  0.81260882028E+02 0.  0.
       11    1    3    3    0    0  0.10526566087E+02 -0.38920815689E+02 -0.55083846665E+02  0.68263230592E+02  0.00000000000E+00 0. -1.
      -12    1    3    3    0    0 -0.10526566087E+02  0.38920815689E+02 -0.73918777344E+02  0.84199905769E+02  0.00000000000E+00 0.  1.
</event>
<event>
 5   0  0.8936300E+00  0.8257159E+02  0.7957747E-01  0.1320796E+00
        1   -1    0    0  501    0  0.00000000000E+00  0.00000000000E+00  0.75855158567E+01  0.75855158567E+01  0.00000000000E+00 0. -1.
       -2   -1    0    0    0  501  0.00000000000E+00  0.00000000000E+00 -0.22470677673E+03  0.22470677673E+03  0.00000000000E+00 0.  1.
      -24    2    1    2    0    0  0.00000000000E+00  0.00000000000E+00 -0.21712126087E+03  0.23229229258E+03  0.82571588769E+02 0.  0.
       11    1    3    3    0    0  0.13489678717E+02 -0.29027320621E+02 -0.35202905192E+02  0.47579421058E+02  0.00000000000E+00 0. -1.
      -12    1    3    3    0    0 -0.13489678717E+02  0.29027320621E+02 -0.18191835568E+03  0.18471287153E+03  0.00000000000E+00 0.  1.
</event>
<event>
 5   0  0.8936300E+00  0.8084991E+02  0.7957747E-01  0.1325296E+00
       -2   -1    0    0    0  501  0.00000000000E+00  0.00000000000E+00  0.39106361150E+02  0.39106361150E+02  0.00000000000E+00 0.  1.
        1   -1    0    0  501    0  0.00000000000E+00  0.00000000000E+00 -0.41788013788E+02  0.41788013788E+02  0.00000000000E+00 0. -1.
      -24    2    1    2    0    0  0.00000000000E+00  0.00000000000E+00 -0.26816526374E+01  0.80894374938E+02  0.80849914259E+02 0.  0.
       11    1    3    3    0    0  0.38054595890E+02  0.46581553267E+01 -0.14166864710E+02  0.40872371293E+02  0.00000000000E+00 0. -1.
      -12    1    3    3    0    0 -0.38054595890E+02 -0.46581553267E+01  0.11485212073E+02  0.40022003645E+02  0.00000000000E+00 0.  1.
</event>
<event>
 5   0  0.8936300E+00  0.8115742E+02  0.7957747E-01  0.1324483E+00
        1   -1    0    0  501    0  0.00000000000E+00  0.00000000000E+00  0.45301237553E+01  0.45301237553E+01  0.00000000000E+00 0. -1.
       -2   -1    0    0    0  501  0.00000000000E+00  0.00000000000E+00 -0.36348490130E+03  0.36348490130E+03  0.00000000000E+00 0.  1.
      -24    2    1    2    0    0  0.00000000000E+00  0.00000000000E+00 -0.35895477755E+03  0.36801502506E+03  0.81157417063E+02 0.  0.
       11    1    3    3    0    0 -0.19139778789E+01 -0.30775773793E+02 -0.59862347574E+02  0.67337301854E+02  0.00000000000E+00 0. -1.
      -12    1    3    3    0    0  0.19139778789E+01  0.30775773793E+02 -0.29909242997E+03  0.30067772320E+03  0.00000000000E+00 0.  1.
</event>
<event>
 5   0  0.8936300E+00  0.7991970E+02  0.7957747E-01  0.1327781E+00
       -4   -1    0    0    0  501  0.00000000000E+00  0.00000000000E+00  0.29518047197E+02  0.29518047197E+02  0.00000000000E+00 0.  1.
        3   -1    0    0  501    0  0.00000000000E+00  0.00000000000E+00 -0.54095373846E+02  0.54095373846E+02  0.00000000000E+00 0. -1.
      -24    2    1    2    0    0  0.00000000000E+00  0.00000000000E+00 -0.24577326649E+02  0.83613421043E+02  0.79919704663E+02 0.  0.
       11    1    3    3    0    0  0.46417365380E+01 -0.16733643292E+02 -0.49941304579E+02  0.52874326841E+02  0.00000000000E+00 0. -1.
      -12    1    3    3    0    0 -0.46417365380E+01  0.16733643292E+02  0.25363977930E+02  0.30739094202E+02  0.00000000000E+00 0.  1.
</event>
<event>
 5   0  0.8936300E+00  0.7980688E+02  0.7957747E-01  0.1328085E+00
        1   -1    0    0  501    0  0.00000000000E+00  0.00000000000E+00  0.65336234217E+01  0.65336234217E+01  0.00000000000E+00 0. -1.
       -2   -1    0    0    0  501  0.00000000000E+00  0.00000000000E+00 -0.24370617791E+03  0.24370617791E+03  0.00000000000E+00 0.  1.
      -24    2    1    2    0    0  0.00000000000E+00  0.00000000000E+00 -0.23717255449E+03  0.25023980134E+03  0.79806876697E+02 0.  0.
       11    1    3    3    0    0  0.13412338221E+02  0.30201410183E+02 -0.48454053973E+02  0.58649904859E+02  0.00000000000E+00 0. -1.
      -12    1    3    3    0    0 -0.13412338221E+02 -0.30201410183E+02 -0.18871850052E+03  0.19158989648E+03  0.00000000000E+00 0.  1.
</event>
<event>
 5   0  0.8936300E+00  0.8058998E+02  0.7957747E-01  0.1325987E+00
        1   -1    0    0  501    0  0.00000000000E+00  0.00000000000E+00  0.10427150500E+02  0.10427150500E+02  0.00000000000E+00 0. -1.
       -2   -1    0    0    0  501  0.00000000000E+00  0.00000000000E+00 -0.15571715752E+03  0.15571715752E+03  0.00000000000E+00 0.  1.
      -24    2    1    2    0    0  0.00000000000E+00  0.00000000000E+00 -0.14529000702E+03  0.16614430802E+03  0.80589980442E+02 0.  0.
       11    1    3    3    0    0  0.25453278439E+02  0.17792378826E+02 -0.19711716492E+02  0.36783010951E+02  0.00000000000E+00 0. -1.
      -12    1    3    3    0    0 -0.25453278439E+02 -0.17792378826E+02 -0.12557829053E+03  0.12936129707E+03  0.00000000000E+00 0.  1.
</event>
<event>
 5   0  0.8936300E+00  0.7940558E+02  0.7957747E-01  0.1329171E+00
        3   -1    0    0  501    0  0.00000000000E+00  0.00000000000E+00  0.10331228462E+03  0.10331228462E+03  0.00000000000E+00 0. -1.
       -4   -1    0    0    0  501  0.00000000000E+00  0.00000000000E+00 -0.15257735629E+02  0.15257735629E+02  0.00000000000E+00 0.  1.
      -24    2    1    2    0    0  0.00000000000E+00  0.00000000000E+00  0.88054548992E+02  0.11857002025E+03  0.79405579803E+02 0.  0.
       11    1    3    3    0    0  0.22119634022E+02  0.23739835235E+02  0.78190820607E+02  0.84656142208E+02  0.00000000000E+00 0. -1.
      -12    1    3    3    0    0 -0.22119634022E+02 -0.23739835235E+02  0.98637283846E+01  0.33913878042E+02  0.00000000000E+00 0.  1.
</event>
<event>
 5   0  0.8936300E+00  0.8018576E+02  0.7957747E-01  0.1327066E+00
        1   -1    0    0  501    0  0.00000000000E+00  0.00000000000E+00  0.36179008401E+02  0.36179008401E+02  0.00000000000E+00 0. -1.
       -2   -1    0    0    0  501  0.00000000000E+00  0.00000000000E+00 -0.44430152178E+02  0.44430152178E+02  0.00000000000E+00 0.  1.
      -24    2    1    2    0    0  0.00000000000E+00  0.00000000000E+00 -0.82511437769E+01  0.80609160579E+02  0.80185755566E+02 0.  0.
       11    1    3    3    0    0 -0.97265448886E+01 -0.22633735281E+02  0.27672879025E+02  0.37049694759E+02  0.00000000000E+00 0. -1.
      -12    1    3    3    0    0  0.97265448886E+01  0.22633735281E+02 -0.35924022802E+02  0.43559465820E+02  0.00000000000E+00 0.  1.
</event>
<event>
 5   0  0.8936300E+00  0.8267537E+02  0.7957747E-01  0.1320528E+00
        1   -1    0    0  501    0  0.00000000000E+00  0.00000000000E+00  0.11649123089E+02  0.11649123089E+02  0.00000000000E+00 0. -1.
       -2   -1    0    0    0  501  0.00000000000E+00  0.00000000000E+00 -0.14668951875E+03  0.14668951875E+03  0.00000000000E+00 0.  1.
      -24    2    1    2    0    0  0.00000000000E+00  0.00000000000E+00 -0.13504039566E+03  0.15833864183E+03  0.82675371415E+02 0.  0.
       11    1    3    3    0    0  0.22665286035E+02 -0.13293271399E+02 -0.64027421847E+01  0.27044802884E+02  0.00000000000E+00 0. -1.
      -12    1    3    3    0    0 -0.22665286035E+02  0.13293271399E+02 -0.12863765347E+03  0.13129383895E+03  0.00000000000E+00 0.  1.
</event>
<event>
 5   0  0.8936300E+00  0.7928341E+02  0.7957747E-01  0.1329503E+00
        1   -1    0    0  501    0  0.00000000000E+00  0.00000000000E+00  0.18838395370E+02  0.18838395370E+02  0.00000000000E+00 0. -1.
       -2   -1    0    0    0  501  0.00000000000E+00  0.00000000000E+00 -0.83418191977E+02  0.83418191977E+02  0.00000000000E+00 0.  1.
      -24    2    1    2    0    0  0.00000000000E+00  0.00000000000E+00 -0.64579796607E+02  0.10225658735E+03  0.79283412679E+02 0.  0.
       11    1    3    3    0    0  0.29726358506E+02 -0.14513837901E+01  0.14836475905E+01  0.29798726737E+02  0.00000000000E+00 0. -1.
      -12    1    3    3    0    0 -0.29726358506E+02  0.14513837901E+01 -0.66063444198E+02  0.72457860610E+02  0.00000000000E+00 0.  1.
</event>
<event>
 5   0  0.8936300E+00  0.8088067E+02  0.7957747E-01  0.1325215E+00
        1   -1    0    0  501    0  0.00000000000E+00  0.00000000000E+00  0.20633111082E+02  0.20633111082E+02  0.00000000000E+00 0. -1.
       -2   -1    0    0    0  501  0.00000000000E+00  0.00000000000E+00 -0.79261957584E+02  0.79261957584E+02  0.00000000000E+00 0.  1.
      -24    2    1    2    0    0  0.00000000000E+00  0.00000000000E+00 -0.58628846502E+02  0.99895068666E+02  0.80880671990E+02 0.  0.
       11    1    3    3    0    0 -0.23267438702E+02  0.32776731723E+02 -0.23827927116E+02  0.46727486096E+02  0.00000000000E+00 0. -1.
      -12    1    3    3    0    0  0.23267438702E+02 -0.32776731723E+02 -0.34800919386E+02  0.53167582570E+02  0.00000000000E+00 0.  1.
</event>
<event>
 5   0  0.8936300E+00  0.7997701E+02  0.7957747E-01  0.1327627E+00
        1   -1    0    0  501    0  0.00000000000E+00  0.00000000000E+00  0.21824086129E+02  0.21824086129E+02  0.00000000000E+00 0. -1.
       -2   -1    0    0    0  501  0.00000000000E+00  0.00000000000E+00 -0.73271355026E+02  0.73271355026E+02  0.00000000000E+00 0.  1.
      -24    2    1    2    0    0  0.00000000000E+00  0.00000000000E+00 -0.51447268897E+02  0.95095441156E+02  0.79977005768E+02 0.  0.
       11    1    3    3    0    0 -0.64521969405E+01  0.22795586684E+02  0.12581204287E+02  0.26824546948E+02  0.00000000000E+00 0. -1.
      -12    1    3    3    0    0  0.64521969405E+01 -0.22795586684E+02 -0.64028473185E+02  0.68270894208E+02  0.00000000000E+00 0.  1.
</event>
<event>
 5   0  0.8936300E+00  0.8148507E+02  0.7957747E-01  0.1323621E+00
        1   -1    0    0  501    0  0.00000000000E+00  0.00000000000E+00  0.20351857948E+02  0.20351857948E+02  0.00000000000E+00 0. -1.
       -2   -1    0    0    0  501  0.00000000000E+00  0.00000000000E+00 -0.81562774174E+02  0.81562774174E+02  0.00000000000E+00 0.  1.
      -24    2    1    2    0    0  0.00000000000E+00  0.00000000000E+00 -0.61210916226E+02  0.10191463212E+03  0.81485065964E+02 0.  0.
       11    1    3    3    0    0 -0.39120536055E+02  0.38465322740E+01 -0.44002824317E+02  0.59003904105E+02  0.00000000000E+00 0. -1.
      -12    1    3    3    0    0  0.39120536055E+02 -0.38465322740E+01 -0.17208091909E+02  0.42910728017E+02  0.00000000000E+00 0.  1.
</event>
<event>
 5   0  0.8936300E+00  0.8254052E+02  0.7957747E-01  0.1320876E+00
        1   -1    0    0  501    0  0.00000000000E+00  0.00000000000E+00  0.11311551340E+03  0.11311551340E+03  0.00000000000E+00 0. -1.
       -2   -1    0    0    0  501  0.00000000000E+00  0.00000000000E+00 -0.15057479712E+02  0.15057479712E+02  0.00000000000E+00 0.  1.
      -24    2    1    2    0    0  0.00000000000E+00  0.00000000000E+00  0.98058033690E+02  0.12817299311E+03  0.82540524549E+02 0.  0.
       11    1    3    3    0    0  0.18355813668E+02 -0.22522254236E+02  0.94542250518E+02  0.98906142197E+02  0.00000000000E+00 0. -1.
      -12    1    3    3    0    0 -0.18355813668E+02  0.22522254236E+02  0.35157831716E+01  0.29266850917E+02  0.00000000000E+00 0.  1.
</event>
<event>
 5   0  0.8936300E+00  0.8151796E+02  0.7957747E-01  0.1323535E+00
        1   -1    0    0  501    0  0.00000000000E+00  0.00000000000E+00  0.99033223249E+02  0.99033223249E+02  0.00000000000E+00 0. -1.
       -2   -1    0    0    0  501  0.00000000000E+00  0.00000000000E+00 -0.16775122649E+02  0.16775122649E+02  0.00000000000E+00 0.  1.
      -24    2    1    2    0    0  0.00000000000E+00  0.00000000000E+00  0.82258100599E+02  0.11580834590E+03  0.81517960385E+02 0.  0.
       11    1    3    3    0    0 -0.36472179414E+02 -0.14961289817E+02  0.26417663270E+02  0.47454746831E+02  0.00000000000E+00 0. -1.
      -12    1    3    3    0    0  0.36472179414E+02  0.14961289817E+02  0.55840437330E+02  0.68353599067E+02  0.00000000000E+00 0.  1.
</event>
<event>
 5   0  0.8936300E+00  0.7855131E+02  0.7957747E-01  0.1331506E+00
       -2   -1    0    0    0  501  0.00000000000E+00  0.00000000000E+00  0.59172970846E+01  0.59172970846E+01  0.00000000000E+00 0.  1.
        1   -1    0    0  501    0  0.00000000000E+00  0.00000000000E+00 -0.26068946303E+03  0.26068946303E+03  0.00000000000E+00 0. -1.
      -24    2    1    2    0    0  0.00000000000E+00  0.00000000000E+00 -0.25477216594E+03  0.26660676011E+03  0.78551308062E+02 0.  0.
       11    1    3    3    0    0  0.19747252623E+02  0.33221461630E+02 -0.15113410015E+03  0.15599722987E+03  0.00000000000E+00 0. -1.
      -12    1    3    3    0    0 -0.19747252623E+02 -0.33221461630E+02 -0.10363806579E+03  0.11060953024E+03  0.00000000000E+00 0.  1.
</event>
<event>
 5   0  0.8936300E+00  0.7666809E+02  0.7957747E-01  0.1336777E+00
        1   -1    0    0  501    0  0.00000000000E+00  0.00000000000E+00  0.57157619992E+01  0.57157619992E+01  0.00000000000E+00 0. -1.
       -2   -1    0    0    0  501  0.00000000000E+00  0.00000000000E+00 -0.25709589651E+03  0.25709589651E+03  0.00000000000E+00 0.  1.
      -24    2    1    2    0    0  0.00000000000E+00  0.00000000000E+00 -0.25138013451E+03  0.26281165851E+03  0.76668088679E+02 0.  0.
       11    1    3    3    0    0  0.24692926808E+02  0.22360611455E+02 -0.60671520463E+02  0.69215395500E+02  0.00000000000E+00 0. -1.
      -12    1    3    3    0    0 -0.24692926808E+02 -0.22360611455E+02 -0.19070861405E+03  0.19359626301E+03  0.00000000000E+00 0.  1.
</event>
<event>
 5   0  0.8936300E+00  0.6645020E+02  0.7957747E-01  0.1368709E+00
        1   -1    0    0  501    0  0.00000000000E+00  0.00000000000E+00  0.32628419309E+01  0.32628419309E+01  0.00000000000E+00 0. -1.
       -2   -1    0    0    0  501  0.00000000000E+00  0.00000000000E+00 -0.33832691028E+03  0.33832691028E+03  0.00000000000E+00 0.  1.
      -24    2    1    2    0    0  0.00000000000E+00  0.00000000000E+00 -0.33506406835E+03  0.34158975221E+03  0.66450198772E+02 0.  0.
       11    1    3    3    0    0  0.32733143955E+02  0.56963588303E+01 -0.16754991771E+03  0.17081241800E+03  0.00000000000E+00 0. -1.
      -12    1    3    3    0    0 -0.32733143955E+02 -0.56963588303E+01 -0.16751415064E+03  0.17077733422E+03  0.00000000000E+00 0.  1.
</event>
<event>
 5   0  0.8936300E+00  0.8004009E+02  0.7957747E-01  0.1327457E+00
        1   -1    0    0  501    0  0.00000000000E+00  0.00000000000E+00  0.13610351435E+02  0.13610351435E+02  0.00000000000E+00 0. -1.
       -2   -1    0    0    0  501  0.00000000000E+00  0.00000000000E+00 -0.11767544663E+03  0.11767544663E+03  0.00000000000E+00 0.  1.
      -24    2    1    2    0    0  0.00000000000E+00  0.00000000000E+00 -0.10406509519E+03  0.13128579806E+03  0.80040094548E+02 0.  0.
       11    1    3    3    0    0 -0.34903160131E+02  0.15311107087E+02 -0.32014529675E+02  0.49775402536E+02  0.00000000000E+00 0. -1.
      -12    1    3    3    0    0  0.34903160131E+02 -0.15311107087E+02 -0.72050565516E+02  0.81510395524E+02  0.00000000000E+00 0.  1.
</event>
<event>
 5   0  0.8936300E+00  0.9592326E+02  0.7957747E-01  0.1289644E+00
        1   -1    0    0  501    0  0.00000000000E+00  0.00000000000E+00  0.16501708276E+02  0.16501708276E+02  0.00000000000E+00 0. -1.
       -2   -1    0    0    0  501  0.00000000000E+00  0.00000000000E+00 -0.13939878421E+03  0.13939878421E+03  0.00000000000E+00 0.  1.
      -24    2    1    2    0    0  0.00000000000E+00  0.00000000000E+00 -0.12289707593E+03  0.15590049249E+03  0.95923262477E+02 0.  0.
       11    1    3    3    0    0  0.75835312239E+01 -0.42033485232E+02 -0.25989708370E+02  0.49997887632E+02  0.00000000000E+00 0. -1.
      -12    1    3    3    0    0 -0.75835312239E+01  0.42033485232E+02 -0.96907367565E+02  0.10590260485E+03  0.00000000000E+00 0.  1.
</event>
<event>
 5   0  0.8936300E+00  0.7659431E+02  0.7957747E-01  0.1336987E+00
        1   -1    0    0  501    0  0.00000000000E+00  0.00000000000E+00  0.29540954075E+02  0.29540954075E+02  0.00000000000E+00 0. -1.
       -2   -1    0    0    0  501  0.00000000000E+00  0.00000000000E+00 -0.49648770877E+02  0.49648770877E+02  0.00000000000E+00 0.  1.
      -24    2    1    2    0    0  0.00000000000E+00  0.00000000000E+00 -0.20107816802E+02  0.79189724952E+02  0.76594309459E+02 0.  0.
       11    1    3    3    0    0 -0.22415251123E+02 -0.55288268985E+01  0.21537345012E+02  0.31573226632E+02  0.00000000000E+00 0. -1.
      -12    1    3    3    0    0  0.22415251123E+02  0.55288268985E+01 -0.41645161814E+02  0.47616498320E+02  0.00000000000E+00 0.  1.
</event>
<event>
 5   0  0.8936300E+00  0.7734785E+02  0.7957747E-01  0.1334855E+00
        1   -1    0    0  501    0  0.00000000000E+00  0.00000000000E+00  0.39438711981E+01  0.39438711981E+01  0.00000000000E+00 0. -1.
       -2   -1    0    0    0  501  0.00000000000E+00  0.00000000000E+00 -0.37923968233E+03  0.37923968233E+03  0.00000000000E+00 0.  1.
      -24    2    1    2    0    0  0.00000000000E+00  0.00000000000E+00 -0.37529581113E+03  0.38318355353E+03  0.77347849622E+02 0.  0.
       11    1    3    3    0    0  0.15380034860E+00 -0.32839274929E+02 -0.86455758392E+02  0.92482645894E+02  0.00000000000E+00 0. -1.
      -12    1    3    3    0    0 -0.15380034860E+00  0.32839274929E+02 -0.28884005274E+03  0.29070090763E+03  0.00000000000E+00 0.  1.
</event>
<event>
 5   0  0.8936300E+00  0.6611533E+02  0.7957747E-01  0.1369865E+00
        1   -1    0    0  501    0  0.00000000000E+00  0.00000000000E+00  0.66076513396E+01  0.66076513396E+01  0.00000000000E+00 0. -1.
       -2   -1    0    0    0  501  0.00000000000E+00  0.00000000000E+00 -0.16538543185E+03  0.16538543185E+03  0.00000000000E+00 0.  1.
      -24    2    1    2    0    0  0.00000000000E+00  0.00000000000E+00 -0.15877778051E+03  0.17199308319E+03  0.66115331665E+02 0.  0.
       11    1    3    3    0    0  0.19110284645E+02  0.20581885630E+02 -0.34032333810E+02  0.44125012633E+02  0.00000000000E+00 0. -1.
      -12    1    3    3    0    0 -0.19110284645E+02 -0.20581885630E+02 -0.12474544670E+03  0.12786807055E+03  0.00000000000E+00 0.  1.
</event>
<event>
 5   0  0.8936300E+00  0.8040847E+02  0.7957747E-01  0.1326470E+00
       -4   -1    0    0    0  501  0.00000000000E+00  0.00000000000E+00  0.16231269188E+03  0.16231269188E+03  0.00000000000E+00 0.  1.
        3   -1    0    0  501    0  0.00000000000E+00  0.00000000000E+00 -0.99584365552E+01  0.99584365552E+01  0.00000000000E+00 0. -1.
      -24    2    1    2    0    0  0.00000000000E+00  0.00000000000E+00  0.15235425532E+03  0.17227112843E+03  0.80408473289E+02 0.  0.
       11    1    3    3    0    0  0.25755706783E+02 -0.22720314427E+02  0.31399845858E+02  0.46535141984E+02  0.00000000000E+00 0. -1.
      -12    1    3    3    0    0 -0.25755706783E+02  0.22720314427E+02  0.12095440946E+03  0.12573598645E+03  0.00000000000E+00 0.  1.
</event>
<event>
 5   0  0.8936300E+00  0.9343221E+02  0.7957747E-01  0.1295006E+00
        1   -1    0    0  501    0  0.00000000000E+00  0.00000000000E+00  0.11140940266E+02  0.11140940266E+02  0.00000000000E+00 0. -1.
       -2   -1    0    0    0  501  0.00000000000E+00  0.00000000000E+00 -0.19588962684E+03  0.19588962684E+03  0.00000000000E+00 0.  1.
      -24    2    1    2    0    0  0.00000000000E+00  0.00000000000E+00 -0.18474868658E+03  0.20703056711E+03  0.93432213531E+02 0.  0.
       11    1    3    3    0    0  0.45074974752E+02 -0.55717277563E+01 -0.68141843546E+02  0.81890831849E+02  0.00000000000E+00 0. -1.
      -12    1    3    3    0    0 -0.45074974752E+02  0.55717277563E+01 -0.11660684303E+03  0.12513973526E+03  0.00000000000E+00 0.  1.
</event>
<event>
 5   0  0.8936300E+00  0.8286437E+02  0.7957747E-01  0.1320043E+00
        1   -1    0    0  501    0  0.00000000000E+00  0.00000000000E+00  0.81846527279E+02  0.81846527279E+02  0.00000000000E+00 0. -1.
       -2   -1    0    0    0  501  0.00000000000E+00  0.00000000000E+00 -0.20973715938E+02  0.20973715938E+02  0.00000000000E+00 0.  1.
      -24    2    1    2    0    0  0.00000000000E+00  0.00000000000E+00  0.60872811340E+02  0.10282024322E+03  0.82864366616E+02 0.  0.
       11    1    3    3    0    0  0.23370839382E+02 -0.77593870230E+01  0.71780705991E+02  0.75887245127E+02  0.00000000000E+00 0. -1.
      -12    1    3    3    0    0 -0.23370839382E+02  0.77593870230E+01 -0.10907894650E+02  0.26932998090E+02  0.00000000000E+00 0.  1.
</event>
<event>
 5   0  0.8936300E+00  0.7908367E+02  0.7957747E-01  0.1330047E+00
       -2   -1    0    0    0  501  0.00000000000E+00  0.00000000000E+00  0.79130565918E+02  0.79130565918E+02  0.00000000000E+00 0.  1.
        1   -1    0    0  501    0  0.00000000000E+00  0.00000000000E+00 -0.19759199673E+02  0.19759199673E+02  0.00000000000E+00 0. -1.
      -24    2    1    2    0    0  0.00000000000E+00  0.00000000000E+00  0.59371366245E+02  0.98889765591E+02  0.79083668408E+02 0.  0.
       11    1    3    3    0    0  0.34387500808E+01  0.33296187240E+02  0.33640250780E+01  0.33641904696E+02  0.00000000000E+00 0. -1.
      -12    1    3    3    0    0 -0.34387500808E+01 -0.33296187240E+02  0.56007341167E+02  0.65247860895E+02  0.00000000000E+00 0.  1.
</event>
<event>
 5   0  0.8936300E+00  0.7387502E+02  0.7957747E-01  0.1344918E+00
        1   -1    0    0  501    0  0.00000000000E+00  0.00000000000E+00  0.87538229001E+02  0.87538229001E+02  0.00000000000E+00 0. -1.
       -2   -1    0    0    0  501  0.00000000000E+00  0.00000000000E+00 -0.15586102581E+02  0.15586102581E+02  0.00000000000E+00 0.  1.
      -24    2    1    2    0    0  0.00000000000E+00  0.00000000000E+00  0.71952126420E+02  0.10312433158E+03  0.73875024655E+02 0.  0.
       11    1    3    3    0    0  0.23646071314E+02 -0.20063286626E+02  0.63988987792E+02  0.71107402691E+02  0.00000000000E+00 0. -1.
      -12    1    3    3    0    0 -0.23646071314E+02  0.20063286626E+02  0.79631386283E+01  0.32016928891E+02  0.00000000000E+00 0.  1.
</event>
<event>
 5   0  0.8936300E+00  0.8576653E+02  0.7957747E-01  0.1312764E+00
        1   -1    0    0  501    0  0.00000000000E+00  0.00000000000E+00  0.98776519045E+01  0.98776519045E+01  0.00000000000E+00 0. -1.
       -2   -1    0    0    0  501  0.00000000000E+00  0.00000000000E+00 -0.18617527738E+03  0.18617527738E+03  0.00000000000E+00 0.  1.
      -24    2    1    2    0    0  0.00000000000E+00  0.00000000000E+00 -0.17629762547E+03  0.19605292928E+03  0.85766533873E+02 0.  0.
       11    1    3    3    0    0 -0.19696945745E+02 -0.27024090348E+02 -0.26781970293E+02  0.42843261589E+02  0.00000000000E+00 0. -1.
      -12    1    3    3    0    0  0.19696945745E+02  0.27024090348E+02 -0.14951565518E+03  0.15320966769E+03  0.00000000000E+00 0.  1.
</event>
<event>
 5   0  0.8936300E+00  0.8270325E+02  0.7957747E-01  0.1320456E+00
        1   -1    0    0  501    0  0.00000000000E+00  0.00000000000E+00  0.82368709730E+02  0.82368709730E+02  0.00000000000E+00 0. -1.
       -2   -1    0    0    0  501  0.00000000000E+00  0.00000000000E+00 -0.20759785640E+02  0.20759785640E+02  0.00000000000E+00 0.  1.
      -24    2    1    2    0    0  0.00000000000E+00  0.00000000000E+00  0.61608924090E+02  0.10312849537E+03  0.82703246790E+02 0.  0.
       11    1    3    3    0    0  0.19282763465E+02 -0.31302619146E+02  0.54407401186E+02  0.65664634592E+02  0.00000000000E+00 0. -1.
      -12    1    3    3    0    0 -0.19282763465E+02  0.31302619146E+02  0.72015229037E+01  0.37463860778E+02  0.00000000000E+00 0.  1.
</event>
<event>
 5   0  0.8936300E+00  0.8019597E+02  0.7957747E-01  0.1327039E+00
        1   -1    0    0  501    0  0.00000000000E+00  0.00000000000E+00  0.41160219469E+01  0.41160219469E+01  0.00000000000E+00 0. -1.
       -2   -1    0    0    0  501  0.00000000000E+00  0.00000000000E+00 -0.39063168168E+03  0.39063168168E+03  0.00000000000E+00 0.  1.
      -24    2    1    2    0    0  0.00000000000E+00  0.00000000000E+00 -0.38651565973E+03  0.39474770362E+03  0.80195974336E+02 0.  0.
       11    1    3    3    0    0 -0.33478529301E+02  0.87312758162E+01 -0.93491719529E+02  0.99688257694E+02  0.00000000000E+00 0. -1.
      -12    1    3    3    0    0  0.33478529301E+02 -0.87312758162E+01 -0.29302394020E+03  0.29505944593E+03  0.00000000000E+00 0.  1.
</event>
<event>
 5   0  0.8936300E+00  0.8041963E+02  0.7957747E-01  0.1326441E+00
        1   -1    0    0  501    0  0.00000000000E+00  0.00000000000E+00  0.18768569478E+02  0.18768569478E+02  0.00000000000E+00 0. -1.
       -2   -1    0    0    0  501  0.00000000000E+00  0.00000000000E+00 -0.86145583322E+02  0.86145583322E+02  0.00000000000E+00 0.  1.
      -24    2    1    2    0    0  0.00000000000E+00  0.00000000000E+00 -0.67377013843E+02  0.10491415280E+03  0.80419633569E+02 0.  0.
       11    1    3    3    0    0  0.13338551344E+02  0.29724550315E+01  0.15646101745E+02  0.20773852332E+02  0.00000000000E+00 0. -1.
      -12    1    3    3    0    0 -0.13338551344E+02 -0.29724550315E+01 -0.83023115588E+02  0.84140300468E+02  0.00000000000E+00 0.  1.
</event>
<event>
 5   0  0.8936300E+00  0.7961237E+02  0.7957747E-01  0.1328610E+00
        1   -1    0    0  501    0  0.00000000000E+00  0.00000000000E+00  0.34587685725E+01  0.34587685725E+01  0.00000000000E+00 0. -1.
       -2   -1    0    0    0  501  0.00000000000E+00  0.00000000000E+00 -0.45812042504E+03  0.45812042504E+03  0.00000000000E+00 0.  1.
      -24    2    1    2    0    0  0.00000000000E+00  0.00000000000E+00 -0.45466165647E+03  0.46157919361E+03  0.79612374127E+02 0.  0.
       11    1    3    3    0    0 -0.33890684727E+02  0.20778640156E+02 -0.21544579450E+03  0.21908268021E+03  0.00000000000E+00 0. -1.
      -12    1    3    3    0    0  0.33890684727E+02 -0.20778640156E+02 -0.23921586197E+03  0.24249651341E+03  0.00000000000E+00 0.  1.
</event>
<event>
 5   0  0.8936300E+00  0.8177268E+02  0.7957747E-01  0.1322868E+00
        1   -1    0    0  501    0  0.00000000000E+00  0.00000000000E+00  0.33576751849E+02  0.33576751849E+02  0.00000000000E+00 0. -1.
       -2   -1    0    0    0  501  0.00000000000E+00  0.00000000000E+00 -0.49787207296E+02  0.49787207296E+02  0.00000000000E+00 0.  1.
      -24    2    1    2    0    0  0.00000000000E+00  0.00000000000E+00 -0.16210455447E+02  0.83363959145E+02  0.81772677702E+02 0.  0.
       11    1    3    3    0    0  0.11727075708E+02  0.58404015550E+01  0.31379046041E+02  0.34004104538E+02  0.00000000000E+00 0. -1.
      -12    1    3    3    0    0 -0.11727075708E+02 -0.58404015550E+01 -0.47589501488E+02  0.49359854607E+02  0.00000000000E+00 0.  1.
</event>
<event>
 5   0  0.8936300E+00  0.8102115E+02  0.7957747E-01  0.1324843E+00
        1   -1    0    0  501    0  0.00000000000E+00  0.00000000000E+00  0.16267576797E+02  0.16267576797E+02  0.00000000000E+00 0. -1.
       -2   -1    0    0    0  501  0.00000000000E+00  0.00000000000E+00 -0.10088206453E+03  0.10088206453E+03  0.00000000000E+00 0.  1.
      -24    2    1    2    0    0  0.00000000000E+00  0.00000000000E+00 -0.84614487738E+02  0.11714964133E+03  0.81021151120E+02 0.  0.
       11    1    3    3    0    0 -0.38123974149E+02  0.12752821741E+02 -0.49541854806E+02  0.63800213517E+02  0.00000000000E+00 0. -1.
      -12    1    3    3    0    0  0.38123974149E+02 -0.12752821741E+02 -0.35072632932E+02  0.53349427814E+02  0.00000000000E+00 0.  1.
</event>
<event>
 5   0  0.8936300E+00  0.8062200E+02  0.7957747E-01  0.1325901E+00
       -2   -1    0    0    0  501  0.00000000000E+00  0.00000000000E+00  0.76467374346E+01  0.76467374346E+01  0.00000000000E+00 0.  1.
        1   -1    0    0  501    0  0.00000000000E+00  0.00000000000E+00 -0.21250588706E+03  0.21250588706E+03  0.00000000000E+00 0. -1.
      -24    2    1    2    0    0  0.00000000000E+00  0.00000000000E+00 -0.20485914963E+03  0.22015262450E+03  0.80622000017E+02 0.  0.
       11    1    3    3    0    0  0.25263828961E+02 -0.30066674199E+02 -0.77595308566E+02  0.86967222921E+02  0.00000000000E+00 0. -1.
      -12    1    3    3    0    0 -0.25263828961E+02  0.30066674199E+02 -0.12726384106E+03  0.13318540158E+03  0.00000000000E+00 0.  1.
</event>
<event>
 5   0  0.8936300E+00  0.8013889E+02  0.7957747E-01  0.1327192E+00
        1   -1    0    0  501    0  0.00000000000E+00  0.00000000000E+00  0.22022705964E+03  0.22022705964E+03  0.00000000000E+00 0. -1.
       -2   -1    0    0    0  501  0.00000000000E+00  0.00000000000E+00 -0.72904772611E+01  0.72904772611E+01  0.00000000000E+00 0.  1.
      -24    2    1    2    0    0  0.00000000000E+00  0.00000000000E+00  0.21293658238E+03  0.22751753690E+03  0.80138888701E+02 0.  0.
       11    1    3    3    0    0  0.42989194871E+01  0.39830737690E+02  0.10865268666E+03  0.11580317220E+03  0.00000000000E+00 0. -1.
      -12    1    3    3    0    0 -0.42989194871E+01 -0.39830737690E+02  0.10428389572E+03  0.11171436470E+03  0.00000000000E+00 0.  1.
</event>
<event>
 5   0  0.8936300E+00  0.7851177E+02  0.7957747E-01  0.1331615E+00
        1   -1    0    0  501    0  0.00000000000E+00  0.00000000000E+00  0.18968930310E+02  0.18968930310E+02  0.00000000000E+00 0. -1.
       -2   -1    0    0    0  501  0.00000000000E+00  0.00000000000E+00 -0.81239405158E+02  0.81239405158E+02  0.00000000000E+00 0.  1.
      -24    2    1    2    0    0  0.00000000000E+00  0.00000000000E+00 -0.62270474847E+02  0.10020833547E+03  0.78511772745E+02 0.  0.
       11    1    3    3    0    0 -0.35293435955E+02 -0.17166601969E+02 -0.30062975902E+02  0.49437853561E+02  0.00000000000E+00 0. -1.
      -12    1    3    3    0    0  0.35293435955E+02  0.17166601969E+02 -0.32207498946E+02  0.50770481907E+02  0.00000000000E+00 0.  1.
</event>
<event>
 5   0  0.8936300E+00  0.7975557E+02  0.7957747E-01  0.1328223E+00
        1   -1    0    0  501    0  0.00000000000E+00  0.00000000000E+00  0.10486897086E+03  0.10486897086E+03  0.00000000000E+00 0. -1.
       -2   -1    0    0    0  501  0.00000000000E+00  0.00000000000E+00 -0.15164045414E+02  0.15164045414E+02  0.00000000000E+00 0.  1.
      -24    2    1    2    0    0  0.00000000000E+00  0.00000000000E+00  0.89704925447E+02  0.12003301627E+03  0.79755572511E+02 0.  0.
       11    1    3    3    0    0  0.33199343092E+02 -0.95229834228E+01  0.74852970762E+02  0.82436950616E+02  0.00000000000E+00 0. -1.
      -12    1    3    3    0    0 -0.33199343092E+02  0.95229834228E+01  0.14851954686E+02  0.37596065659E+02  0.00000000000E+00 0.  1.
</event>
<event>
 5   0  0.8936300E+00  0.7972107E+02  0.7957747E-01  0.1328316E+00
        1   -1    0    0  501    0  0.00000000000E+00  0.00000000000E+00  0.31839951288E+03  0.31839951288E+03  0.00000000000E+00 0. -1.
       -2   -1    0    0    0  501  0.00000000000E+00  0.00000000000E+00 -0.49901531141E+01  0.49901531141E+01  0.00000000000E+00 0.  1.
      -24    2    1    2    0    0  0.00000000000E+00  0.00000000000E+00  0.31340935976E+03  0.32338966599E+03  0.79721071762E+02 0.  0.
       11    1    3    3    0    0 -0.38596972090E+02  0.24683515133E+01  0.11757596558E+03  0.12377369145E+03  0.00000000000E+00 0. -1.
      -12    1    3    3    0    0  0.38596972090E+02 -0.24683515133E+01  0.19583339419E+03  0.19961597454E+03  0.00000000000E+00 0.  1.
</event>
<event>
 5   0  0.8936300E+00  0.7866536E+02  0.7957747E-01  0.1331193E+00
        1   -1    0    0  501    0  0.00000000000E+00  0.00000000000E+00  0.69745655000E+01  0.69745655000E+01  0.00000000000E+00 0. -1.
       -2   -1    0    0    0  501  0.00000000000E+00  0.00000000000E+00 -0.22181448964E+03  0.22181448964E+03  0.00000000000E+00 0.  1.
      -24    2    1    2    0    0  0.00000000000E+00  0.00000000000E+00 -0.21483992414E+03  0.22878905514E+03  0.78665359260E+02 0.  0.
       11    1    3    3    0    0  0.24258482337E+02 -0.43145386377E+01 -0.18252004057E+02  0.30663086293E+02  0.00000000000E+00 0. -1.
      -12    1    3    3    0    0 -0.24258482337E+02  0.43145386377E+01 -0.19658792009E+03  0.19812596885E+03  0.00000000000E+00 0.  1.
</event>
<event>
 5   0  0.8936300E+00  0.7987542E+02  0.7957747E-01  0.1327900E+00
        1   -1    0    0  501    0  0.00000000000E+00  0.00000000000E+00  0.51626331016E+01  0.51626331016E+01  0.00000000000E+00 0. -1.
       -2   -1    0    0    0  501  0.00000000000E+00  0.00000000000E+00 -0.30895484926E+03  0.30895484926E+03  0.00000000000E+00 0.  1.
      -24    2    1    2    0    0  0.00000000000E+00  0.00000000000E+00 -0.30379221616E+03  0.31411748236E+03  0.79875416286E+02 0.  0.
       11    1    3    3    0    0 -0.28636342707E+02 -0.16562904922E+02 -0.63903469882E+02  0.71958483906E+02  0.00000000000E+00 0. -1.
      -12    1    3    3    0    0  0.28636342707E+02  0.16562904922E+02 -0.23988874628E+03  0.24215899846E+03  0.00000000000E+00 0.  1.
</event>
<event>
 5   0  0.8936300E+00  0.8018522E+02  0.7957747E-01  0.1327068E+00
        1   -1    0    0  501    0  0.00000000000E+00  0.00000000000E+00  0.10696855687E+03  0.10696855687E+03  0.00000000000E+00 0. -1.
       -2   -1    0    0    0  501  0.00000000000E+00  0.00000000000E+00 -0.15027009339E+02  0.15027009339E+02  0.00000000000E+00 0.  1.
      -24    2    1    2    0    0  0.00000000000E+00  0.00000000000E+00  0.91941547534E+02  0.12199556621E+03  0.80185223155E+02 0.  0.
       11    1    3    3    0    0 -0.21102230855E+02  0.12573243487E+02  0.94179136278E+02  0.97329853122E+02  0.00000000000E+00 0. -1.
      -12    1    3    3    0    0  0.21102230855E+02 -0.12573243487E+02 -0.22375887433E+01  0.24665713090E+02  0.00000000000E+00 0.  1.
</event>
<event>
 5   0  0.8936300E+00  0.8078964E+02  0.7957747E-01  0.1325456E+00
        1   -1    0    0  501    0  0.00000000000E+00  0.00000000000E+00  0.17394630430E+03  0.17394630430E+03  0.00000000000E+00 0. -1.
       -2   -1    0    0    0  501  0.00000000000E+00  0.00000000000E+00 -0.93807205856E+01  0.93807205856E+01  0.00000000000E+00 0.  1.
      -24    2    1    2    0    0  0.00000000000E+00  0.00000000000E+00  0.16456558372E+03  0.18332702489E+03  0.80789644820E+02 0.  0.
       11    1    3    3    0    0  0.28986408262E+02  0.11773535780E+02  0.14026552356E+03  0.14371236936E+03  0.00000000000E+00 0. -1.
      -12    1    3    3    0    0 -0.28986408262E+02 -0.11773535780E+02  0.24300060160E+02  0.39614655526E+02  0.00000000000E+00 0.  1.
</event>
<event>
 5   0  0.8936300E+00  0.8035938E+02  0.7957747E-01  0.1326602E+00
        1   -1    0    0  501    0  0.00000000000E+00  0.00000000000E+00  0.12441915732E+02  0.12441915732E+02  0.00000000000E+00 0. -1.
       -2   -1    0    0    0  501  0.00000000000E+00  0.00000000000E+00 -0.12975554974E+03  0.12975554974E+03  0.00000000000E+00 0.  1.
      -24    2    1    2    0    0  0.00000000000E+00  0.00000000000E+00 -0.11731363401E+03  0.14219746547E+03  0.80359383166E+02 0.  0.
       11    1    3    3    0    0  0.96305875673E+01 -0.16252405682E+02  0.40930036020E+01  0.19329810807E+02  0.00000000000E+00 0. -1.
      -12    1    3    3    0    0 -0.96305875673E+01  0.16252405682E+02 -0.12140663761E+03  0.12286765467E+03  0.00000000000E+00 0.  1.
</event>
<event>
 5   0  0.8936300E+00  0.8188222E+02  0.7957747E-01  0.1322583E+00
        1   -1    0    0  501    0  0.00000000000E+00  0.00000000000E+00  0.86666938598E+01  0.86666938598E+01  0.00000000000E+00 0. -1.
       -2   -1    0    0    0  501  0.00000000000E+00  0.00000000000E+00 -0.19340413693E+03  0.19340413693E+03  0.00000000000E+00 0.  1.
      -24    2    1    2    0    0  0.00000000000E+00  0.00000000000E+00 -0.18473744307E+03  0.20207083079E+03  0.81882218974E+02 0.  0.
       11    1    3    3    0    0 -0.29340954444E+02 -0.42747780097E+01 -0.22698744596E+02  0.37341643522E+02  0.00000000000E+00 0. -1.
      -12    1    3    3    0    0  0.29340954444E+02  0.42747780097E+01 -0.16203869848E+03  0.16472918727E+03  0.00000000000E+00 0.  1.
</event>
<event>
 5   0  0.8936300E+00  0.8091065E+02  0.7957747E-01  0.1325135E+00
        1   -1    0    0  501    0  0.00000000000E+00  0.00000000000E+00  0.97815383786E+01  0.97815383786E+01  0.00000000000E+00 0. -1.
       -2   -1    0    0    0  501  0.00000000000E+00  0.00000000000E+00 -0.16731861153E+03  0.16731861153E+03  0.00000000000E+00 0.  1.
      -24    2    1    2    0    0  0.00000000000E+00  0.00000000000E+00 -0.15753707315E+03  0.17710014990E+03  0.80910652453E+02 0.  0.
       11    1    3    3    0    0 -0.27274317353E+02 -0.19667312748E+02 -0.29534717606E+02  0.44754788815E+02  0.00000000000E+00 0. -1.
      -12    1    3    3    0    0  0.27274317353E+02  0.19667312748E+02 -0.12800235554E+03  0.13234536109E+03  0.00000000000E+00 0.  1.
</event>
<event>
 5   0  0.8936300E+00  0.8302593E+02  0.7957747E-01  0.1319629E+00
        1   -1    0    0  501    0  0.00000000000E+00  0.00000000000E+00  0.57246474365E+02  0.57246474365E+02  0.00000000000E+00 0. -1.
       -2   -1    0    0    0  501  0.00000000000E+00  0.00000000000E+00 -0.30103621221E+02  0.30103621221E+02  0.00000000000E+00 0.  1.
      -24    2    1    2    0    0  0.00000000000E+00  0.00000000000E+00  0.27142853143E+02  0.87350095586E+02  0.83025928011E+02 0.  0.
       11    1    3    3    0    0 -0.69218839760E+01 -0.17056549756E+02  0.52718041569E+02  0.55839325517E+02  0.00000000000E+00 0. -1.
      -12    1    3    3    0    0  0.69218839760E+01  0.17056549756E+02 -0.25575188425E+02  0.31510770069E+02  0.00000000000E+00 0.  1.
</event>
<event>
 5   0  0.8936300E+00  0.8203182E+02  0.7957747E-01  0.1322193E+00
        1   -1    0    0  501    0  0.00000000000E+00  0.00000000000E+00  0.21087104581E+03  0.21087104581E+03  0.00000000000E+00 0. -1.
       -2   -1    0    0    0  501  0.00000000000E+00  0.00000000000E+00 -0.79778841232E+01  0.79778841232E+01  0.00000000000E+00 0.  1.
      -24    2    1    2    0    0  0.00000000000E+00  0.00000000000E+00  0.20289316169E+03  0.21884892993E+03  0.82031817446E+02 0.  0.
       11    1    3    3    0    0 -0.22048319031E+02  0.33658533342E+02  0.12266894267E+03  0.12909955358E+03  0.00000000000E+00 0. -1.
      -12    1    3    3    0    0  0.22048319031E+02 -0.33658533342E+02  0.80224219012E+02  0.89749376348E+02  0.00000000000E+00 0.  1.
</event>
<event>
 5   0  0.8936300E+00  0.8279426E+02  0.7957747E-01  0.1320223E+00
        1   -1    0    0  501    0  0.00000000000E+00  0.00000000000E+00  0.73888739347E+02  0.73888739347E+02  0.00000000000E+00 0. -1.
       -2   -1    0    0    0  501  0.00000000000E+00  0.00000000000E+00 -0.23193280102E+02  0.23193280102E+02  0.00000000000E+00 0.  1.
      -24    2    1    2    0    0  0.00000000000E+00  0.00000000000E+00  0.50695459245E+02  0.97082019450E+02  0.82794256518E+02 0.  0.
       11    1    3    3    0    0  0.30586035752E+02 -0.69861543992E+01  0.57016013878E+02  0.65077936160E+02  0.00000000000E+00 0. -1.
      -12    1    3    3    0    0 -0.30586035752E+02  0.69861543992E+01 -0.63205546330E+01  0.32004083289E+02  0.00000000000E+00 0.  1.
</event>
<event>
 5   0  0.8936300E+00  0.8269624E+02  0.7957747E-01  0.1320475E+00
        1   -1    0    0  501    0  0.00000000000E+00  0.00000000000E+00  0.15312468293E+03  0.15312468293E+03  0.00000000000E+00 0. -1.
       -2   -1    0    0    0  501  0.00000000000E+00  0.00000000000E+00 -0.11165195868E+02  0.11165195868E+02  0.00000000000E+00 0.  1.
      -24    2    1    2    0    0  0.00000000000E+00  0.00000000000E+00  0.14195948706E+03  0.16428987880E+03  0.82696241199E+02 0.  0.
       11    1    3    3    0    0 -0.32894560424E+02 -0.18554037900E+02  0.10442205916E+03  0.11104175281E+03  0.00000000000E+00 0. -1.
      -12    1    3    3    0    0  0.32894560424E+02  0.18554037900E+02  0.37537427908E+02  0.53248125994E+02  0.00000000000E+00 0.  1.
</event>
<event>
 5   0  0.8936300E+00  0.8124062E+02  0.7957747E-01  0.1324264E+00
        1   -1    0    0  501    0  0.00000000000E+00  0.00000000000E+00  0.66469223870E+02  0.66469223870E+02  0.00000000000E+00 0. -1.
       -2   -1    0    0    0  501  0.00000000000E+00  0.00000000000E+00 -0.24823660210E+02  0.24823660210E+02  0.00000000000E+00 0.  1.
      -24    2    1    2    0    0  0.00000000000E+00  0.00000000000E+00  0.41645563659E+02  0.91292884080E+02  0.81240616142E+02 0.  0.
       11    1    3    3    0    0 -0.15148991474E+02 -0.15888853270E+02  0.59228565769E+02  0.63166214102E+02  0.00000000000E+00 0. -1.
      -12    1    3    3    0    0  0.15148991474E+02  0.15888853270E+02 -0.17583002110E+02  0.28126669978E+02  0.00000000000E+00 0.  1.
</event>
<event>
 5   0  0.8936300E+00  0.8200635E+02  0.7957747E-01  0.1322259E+00
        1   -1    0    0  501    0  0.00000000000E+00  0.00000000000E+00  0.55347721859E+01  0.55347721859E+01  0.00000000000E+00 0. -1.
       -2   -1    0    0    0  501  0.00000000000E+00  0.00000000000E+00 -0.30376327555E+03  0.30376327555E+03  0.00000000000E+00 0.  1.
      -24    2    1    2    0    0  0.00000000000E+00  0.00000000000E+00 -0.29822850336E+03  0.30929804773E+03  0.82006354109E+02 0.  0.
       11    1    3    3    0    0 -0.28622161943E+02 -0.14182614319E+02 -0.52154187742E+02  0.61159087651E+02  0.00000000000E+00 0. -1.
      -12    1    3    3    0    0  0.28622161943E+02  0.14182614319E+02 -0.24607431562E+03  0.24813896008E+03  0.00000000000E+00 0.  1.
</event>
<event>
 5   0  0.8936300E+00  0.7986747E+02  0.7957747E-01  0.1327921E+00
        1   -1    0    0  501    0  0.00000000000E+00  0.00000000000E+00  0.11217978760E+02  0.11217978760E+02  0.00000000000E+00 0. -1.
       -2   -1    0    0    0  501  0.00000000000E+00  0.00000000000E+00 -0.14215602989E+03  0.14215602989E+03  0.00000000000E+00 0.  1.
      -24    2    1    2    0    0  0.00000000000E+00  0.00000000000E+00 -0.13093805113E+03  0.15337400865E+03  0.79867473327E+02 0.  0.
       11    1    3    3    0    0 -0.19861602534E+02 -0.28392063098E+02 -0.27345680214E+02  0.44140443230E+02  0.00000000000E+00 0. -1.
      -12    1    3    3    0    0  0.19861602534E+02  0.28392063098E+02 -0.10359237092E+03  0.10923356542E+03  0.00000000000E+00 0.  1.
</event>
<event>
 5   0  0.8936300E+00  0.7980318E+02  0.7957747E-01  0.1328095E+00
        1   -1    0    0  501    0  0.00000000000E+00  0.00000000000E+00  0.10317408952E+03  0.10317408952E+03  0.00000000000E+00 0. -1.
       -2   -1    0    0    0  501  0.00000000000E+00  0.00000000000E+00 -0.15431558225E+02  0.15431558225E+02  0.00000000000E+00 0.  1.
      -24    2    1    2    0    0  0.00000000000E+00  0.00000000000E+00  0.87742531299E+02  0.11860564775E+03  0.79803182136E+02 0.  0.
       11    1    3    3    0    0  0.13826842174E+02 -0.13351836022E+02  0.95840013608E+02  0.97748459313E+02  0.00000000000E+00 0. -1.
      -12    1    3    3    0    0 -0.13826842174E+02  0.13351836022E+02 -0.80974823090E+01  0.20857188435E+02  0.00000000000E+00 0.  1.
</event>
<event>
 5   0  0.8936300E+00  0.7996207E+02  0.7957747E-01  0.1327667E+00
        1   -1    0    0  501    0  0.00000000000E+00  0.00000000000E+00  0.72322870192E+01  0.72322870192E+01  0.00000000000E+00 0. -1.
       -2   -1    0    0    0  501  0.00000000000E+00  0.00000000000E+00 -0.22102041974E+03  0.22102041974E+03  0.00000000000E+00 0.  1.
      -24    2    1    2    0    0  0.00000000000E+00  0.00000000000E+00 -0.21378813272E+03  0.22825270676E+03  0.79962068824E+02 0.  0.
       11    1    3    3    0    0 -0.16717224350E+02 -0.36200581489E+02 -0.98554481600E+02  0.10631525541E+03  0.00000000000E+00 0. -1.
      -12    1    3    3    0    0  0.16717224350E+02  0.36200581489E+02 -0.11523365112E+03  0.12193745134E+03  0.00000000000E+00 0.  1.
</event>
<event>
 5   0  0.8936300E+00  0.8065349E+02  0.7957747E-01  0.1325818E+00
        1   -1    0    0  501    0  0.00000000000E+00  0.00000000000E+00  0.10767025317E+03  0.10767025317E+03  0.00000000000E+00 0. -1.
       -2   -1    0    0    0  501  0.00000000000E+00  0.00000000000E+00 -0.15103953701E+02  0.15103953701E+02  0.00000000000E+00 0.  1.
      -24    2    1    2    0    0  0.00000000000E+00  0.00000000000E+00  0.92566299466E+02  0.12277420687E+03  0.80653493882E+02 0.  0.
       11    1    3    3    0    0 -0.26764860449E+02 -0.24708005721E+02  0.72622932145E+02  0.81246129600E+02  0.00000000000E+00 0. -1.
      -12    1    3    3    0    0  0.26764860449E+02  0.24708005721E+02  0.19943367321E+02  0.41528077269E+02  0.00000000000E+00 0.  1.
</event>
<event>
 5   0  0.8936300E+00  0.8010612E+02  0.7957747E-01  0.1327280E+00
        1   -1    0    0  501    0  0.00000000000E+00  0.00000000000E+00  0.12448027949E+02  0.12448027949E+02  0.00000000000E+00 0. -1.
       -2   -1    0    0    0  501  0.00000000000E+00  0.00000000000E+00 -0.12887564907E+03  0.12887564907E+03  0.00000000000E+00 0.  1.
      -24    2    1    2    0    0  0.00000000000E+00  0.00000000000E+00 -0.11642762112E+03  0.14132367702E+03  0.80106121653E+02 0.  0.
       11    1    3    3    0    0  0.31903645973E+02  0.18751355759E+02 -0.31181037139E+02  0.48391249686E+02  0.00000000000E+00 0. -1.
      -12    1    3    3    0    0 -0.31903645973E+02 -0.18751355759E+02 -0.85246583986E+02  0.92932427336E+02  0.00000000000E+00 0.  1.
</event>
<event>
 5   0  0.8936300E+00  0.7862947E+02  0.7957747E-01  0.1331291E+00
        1   -1    0    0  501    0  0.00000000000E+00  0.00000000000E+00  0.35520397601E+02  0.35520397601E+02  0.00000000000E+00 0. -1.
       -2   -1    0    0    0  501  0.00000000000E+00  0.00000000000E+00 -0.43514384489E+02  0.43514384489E+02  0.00000000000E+00 0.  1.
      -24    2    1    2    0    0  0.00000000000E+00  0.00000000000E+00 -0.79939868884E+01  0.79034782090E+02  0.78629466192E+02 0.  0.
       11    1    3    3    0    0 -0.96064096511E+01 -0.20498826142E+02  0.28311552259E+02  0.36249537527E+02  0.00000000000E+00 0. -1.
      -12    1    3    3    0    0  0.96064096511E+01  0.20498826142E+02 -0.36305539147E+02  0.42785244564E+02  0.00000000000E+00 0.  1.
</event>
<event>
 5   0  0.8936300E+00  0.8186807E+02  0.7957747E-01  0.1322619E+00
        1   -1    0    0  501    0  0.00000000000E+00  0.00000000000E+00  0.16346580758E+03  0.16346580758E+03  0.00000000000E+00 0. -1.
       -2   -1    0    0    0  501  0.00000000000E+00  0.00000000000E+00 -0.10250433716E+02  0.10250433716E+02  0.00000000000E+00 0.  1.
      -24    2    1    2    0    0  0.00000000000E+00  0.00000000000E+00  0.15321537386E+03  0.17371624129E+03  0.81868074985E+02 0.  0.
       11    1    3    3    0    0  0.28176115439E+02  0.52960114150E+01  0.13860413920E+03  0.14153815253E+03  0.00000000000E+00 0. -1.
      -12    1    3    3    0    0 -0.28176115439E+02 -0.52960114150E+01  0.14611234660E+02  0.32178088762E+02  0.00000000000E+00 0.  1.
</event>
<event>
 5   0  0.8936300E+00  0.8209645E+02  0.7957747E-01  0.1322025E+00
        1   -1    0    0  501    0  0.00000000000E+00  0.00000000000E+00  0.65934583611E+02  0.65934583611E+02  0.00000000000E+00 0. -1.
       -2   -1    0    0    0  501  0.00000000000E+00  0.00000000000E+00 -0.25554975411E+02  0.25554975411E+02  0.00000000000E+00 0.  1.
      -24    2    1    2    0    0  0.00000000000E+00  0.00000000000E+00  0.40379608200E+02  0.91489559023E+02  0.82096447254E+02 0.  0.
       11    1    3    3    0    0  0.29070293075E+02 -0.21050020355E+01  0.52400919413E+02  0.59961398653E+02  0.00000000000E+00 0. -1.
      -12    1    3    3    0    0 -0.29070293075E+02  0.21050020355E+01 -0.12021311213E+02  0.31528160370E+02  0.00000000000E+00 0.  1.
</event>
<event>
 5   0  0.8936300E+00  0.8028949E+02  0.7957747E-01  0.1326788E+00
        1   -1    0    0  501    0  0.00000000000E+00  0.00000000000E+00  0.28937390415E+02  0.28937390415E+02  0.00000000000E+00 0. -1.
       -2   -1    0    0    0  501  0.00000000000E+00  0.00000000000E+00 -0.55692665461E+02  0.55692665461E+02  0.00000000000E+00 0.  1.
      -24    2    1    2    0    0  0.00000000000E+00  0.00000000000E+00 -0.26755275046E+02  0.84630055876E+02  0.80289486328E+02 0.  0.
       11    1    3    3    0    0  0.24820175767E+02 -0.17583119701E+02  0.14237831779E+02  0.33584566058E+02  0.00000000000E+00 0. -1.
      -12    1    3    3    0    0 -0.24820175767E+02  0.17583119701E+02 -0.40993106826E+02  0.51045489818E+02  0.00000000000E+00 0.  1.
</event>
<event>
 5   0  0.8936300E+00  0.5506702E+02  0.7957747E-01  0.1413052E+00
       -2   -1    0    0    0  501  0.00000000000E+00  0.00000000000E+00  0.10324390706E+02  0.10324390706E+02  0.00000000000E+00 0.  1.
        1   -1    0    0  501    0  0.00000000000E+00  0.00000000000E+00 -0.73427501519E+02  0.73427501519E+02  0.00000000000E+00 0. -1.
      -24    2    1    2    0    0  0.00000000000E+00  0.00000000000E+00 -0.63103110813E+02  0.83751892225E+02  0.55067021501E+02 0.  0.
       11    1    3    3    0    0  0.11371177448E+02  0.18507917427E+02 -0.57283577482E+02  0.61263814223E+02  0.00000000000E+00 0. -1.
      -12    1    3    3    0    0 -0.11371177448E+02 -0.18507917427E+02 -0.58195333312E+01  0.22488078002E+02  0.00000000000E+00 0.  1.
</event>
<event>
 5   0  0.8936300E+00  0.8054552E+02  0.7957747E-01  0.1326105E+00
        1   -1    0    0  501    0  0.00000000000E+00  0.00000000000E+00  0.92564389701E+01  0.92564389701E+01  0.00000000000E+00 0. -1.
       -2   -1    0    0    0  501  0.00000000000E+00  0.00000000000E+00 -0.17521805291E+03  0.17521805291E+03  0.00000000000E+00 0.  1.
      -24    2    1    2    0    0  0.00000000000E+00  0.00000000000E+00 -0.16596161394E+03  0.18447449188E+03  0.80545520377E+02 0.  0.
       11    1    3    3    0    0 -0.21465720921E+02  0.14092919333E+00 -0.49386250847E+01  0.22026961965E+02  0.00000000000E+00 0. -1.
      -12    1    3    3    0    0  0.21465720921E+02 -0.14092919333E+00 -0.16102298885E+03  0.16244752991E+03  0.00000000000E+00 0.  1.
</event>
<event>
 5   0  0.8936300E+00  0.7943614E+02  0.7957747E-01  0.1329088E+00
        1   -1    0    0  501    0  0.00000000000E+00  0.00000000000E+00  0.71940630411E+02  0.71940630411E+02  0.00000000000E+00 0. -1.
       -2   -1    0    0    0  501  0.00000000000E+00  0.00000000000E+00 -0.21928153045E+02  0.21928153045E+02  0.00000000000E+00 0.  1.
      -24    2    1    2    0    0  0.00000000000E+00  0.00000000000E+00  0.50012477366E+02  0.93868783456E+02  0.79436141745E+02 0.  0.
       11    1    3    3    0    0  0.38063315463E+02 -0.11275004250E+02  0.26493218516E+02  0.47726641745E+02  0.00000000000E+00 0. -1.
      -12    1    3    3    0    0 -0.38063315463E+02  0.11275004250E+02  0.23519258850E+02  0.46142141712E+02  0.00000000000E+00 0.  1.
</event>
<event>
 5   0  0.8936300E+00  0.7992713E+02  0.7957747E-01  0.1327761E+00
        1   -1    0    0  501    0  0.00000000000E+00  0.00000000000E+00  0.42835819149E+01  0.42835819149E+01  0.00000000000E+00 0. -1.
       -2   -1    0    0    0  501  0.00000000000E+00  0.00000000000E+00 -0.37283903968E+03  0.37283903968E+03  0.00000000000E+00 0.  1.
      -24    2    1    2    0    0  0.00000000000E+00  0.00000000000E+00 -0.36855545777E+03  0.37712262160E+03  0.79927131002E+02 0.  0.
       11    1    3    3    0    0  0.70771324479E+01  0.36630644035E+02 -0.11668911710E+03  0.12250812192E+03  0.00000000000E+00 0. -1.
      -12    1    3    3    0    0 -0.70771324479E+01 -0.36630644035E+02 -0.25186634067E+03  0.25461449968E+03  0.00000000000E+00 0.  1.
</event>
<event>
 5   0  0.8936300E+00  0.7943192E+02  0.7957747E-01  0.1329099E+00
        1   -1    0    0  501    0  0.00000000000E+00  0.00000000000E+00  0.17510082228E+02  0.17510082228E+02  0.00000000000E+00 0. -1.
       -2   -1    0    0    0  501  0.00000000000E+00  0.00000000000E+00 -0.90082803476E+02  0.90082803476E+02  0.00000000000E+00 0.  1.
      -24    2    1    2    0    0  0.00000000000E+00  0.00000000000E+00 -0.72572721248E+02  0.10759288570E+03  0.79431915403E+02 0.  0.
       11    1    3    3    0    0  0.12164961798E+02  0.13437849379E+02  0.11580410368E+02  0.21509718636E+02  0.00000000000E+00 0. -1.
      -12    1    3    3    0    0 -0.12164961798E+02 -0.13437849379E+02 -0.84153131617E+02  0.86083167068E+02  0.00000000000E+00 0.  1.
</event>
<event>
 5   0  0.8936300E+00  0.8067330E+02  0.7957747E-01  0.1325765E+00
        1   -1    0    0  501    0  0.00000000000E+00  0.00000000000E+00  0.75927407476E+02  0.75927407476E+02  0.00000000000E+00 0. -1.
       -2   -1    0    0    0  501  0.00000000000E+00  0.00000000000E+00 -0.21428958573E+02  0.21428958573E+02  0.00000000000E+00 0.  1.
      -24    2    1    2    0    0  0.00000000000E+00  0.00000000000E+00  0.54498448903E+02  0.97356366049E+02  0.80673298417E+02 0.  0.
       11    1    3    3    0    0 -0.61804475625E+01 -0.13365601713E+02  0.72567787655E+02  0.74046749060E+02  0.00000000000E+00 0. -1.
      -12    1    3    3    0    0  0.61804475625E+01  0.13365601713E+02 -0.18069338752E+02  0.23309616989E+02  0.00000000000E+00 0.  1.
</event>
<event>
 5   0  0.8936300E+00  0.8196640E+02  0.7957747E-01  0.1322363E+00
       -2   -1    0    0    0  501  0.00000000000E+00  0.00000000000E+00  0.90442802159E+01  0.90442802159E+01  0.00000000000E+00 0.  1.
        1   -1    0    0  501    0  0.00000000000E+00  0.00000000000E+00 -0.18571103180E+03  0.18571103180E+03  0.00000000000E+00 0. -1.
      -24    2    1    2    0    0  0.00000000000E+00  0.00000000000E+00 -0.17666675159E+03  0.19475531202E+03  0.81966398257E+02 0.  0.
       11    1    3    3    0    0  0.24164176302E+02 -0.11726322020E+02 -0.16188351257E+03  0.16409657427E+03  0.00000000000E+00 0. -1.
      -12    1    3    3    0    0 -0.24164176302E+02  0.11726322020E+02 -0.14783239011E+02  0.30658737745E+02  0.00000000000E+00 0.  1.
</event>
<event>
 5   0  0.8936300E+00  0.7904279E+02  0.7957747E-01  0.1330158E+00
        1   -1    0    0  501    0  0.00000000000E+00  0.00000000000E+00  0.75770914110E+01  0.75770914110E+01  0.00000000000E+00 0. -1.
       -2   -1    0    0    0  501  0.00000000000E+00  0.00000000000E+00 -0.20613986109E+03  0.20613986109E+03  0.00000000000E+00 0.  1.
      -24    2    1    2    0    0  0.00000000000E+00  0.00000000000E+00 -0.19856276968E+03  0.21371695250E+03  0.79042787677E+02 0.  0.
       11    1    3    3    0    0  0.19977070340E+02  0.33329341540E+02 -0.79781617179E+02  0.88741392746E+02  0.00000000000E+00 0. -1.
      -12    1    3    3    0    0 -0.19977070340E+02 -0.33329341540E+02 -0.11878115250E+03  0.12497555976E+03  0.00000000000E+00 0.  1.
</event>
<event>
 5   0  0.8936300E+00  0.7911616E+02  0.7957747E-01  0.1329958E+00
        1   -1    0    0  501    0  0.00000000000E+00  0.00000000000E+00  0.92143342266E+01  0.92143342266E+01  0.00000000000E+00 0. -1.
       -2   -1    0    0    0  501  0.00000000000E+00  0.00000000000E+00 -0.16982687587E+03  0.16982687587E+03  0.00000000000E+00 0.  1.
      -24    2    1    2    0    0  0.00000000000E+00  0.00000000000E+00 -0.16061254165E+03  0.17904121010E+03  0.79116157514E+02 0.  0.
       11    1    3    3    0    0 -0.23003048022E+02 -0.31760263541E+02 -0.68550112775E+02  0.78974505506E+02  0.00000000000E+00 0. -1.
      -12    1    3    3    0    0  0.23003048022E+02  0.31760263541E+02 -0.92062428871E+02  0.10006670459E+03  0.00000000000E+00 0.  1.
</event>
<event>
 5   0  0.8936300E+00  0.8396873E+02  0.7957747E-01  0.1317234E+00
        1   -1    0    0  501    0  0.00000000000E+00  0.00000000000E+00  0.68512557155E+01  0.68512557155E+01  0.00000000000E+00 0. -1.
       -2   -1    0    0    0  501  0.00000000000E+00  0.00000000000E+00 -0.25727938054E+03  0.25727938054E+03  0.00000000000E+00 0.  1.
      -24    2    1    2    0    0  0.00000000000E+00  0.00000000000E+00 -0.25042812482E+03  0.26413063626E+03  0.83968728141E+02 0.  0.
       11    1    3    3    0    0 -0.12254376024E+02 -0.22673732439E+02 -0.20961866560E+02  0.33221494911E+02  0.00000000000E+00 0. -1.
      -12    1    3    3    0    0  0.12254376024E+02  0.22673732439E+02 -0.22946625826E+03  0.23090914134E+03  0.00000000000E+00 0.  1.
</event>
<event>
 5   0  0.8936300E+00  0.8293236E+02  0.7957747E-01  0.1319868E+00
       -2   -1    0    0    0  501  0.00000000000E+00  0.00000000000E+00  0.26520072397E+02  0.26520072397E+02  0.00000000000E+00 0.  1.
        1   -1    0    0  501    0  0.00000000000E+00  0.00000000000E+00 -0.64835580244E+02  0.64835580244E+02  0.00000000000E+00 0. -1.
      -24    2    1    2    0    0  0.00000000000E+00  0.00000000000E+00 -0.38315507847E+02  0.91355652642E+02  0.82932364780E+02 0.  0.
       11    1    3    3    0    0  0.28963051843E+02  0.22874135526E+02 -0.39981758190E+02  0.54411629603E+02  0.00000000000E+00 0. -1.
      -12    1    3    3    0    0 -0.28963051843E+02 -0.22874135526E+02  0.16662503435E+01  0.36944023039E+02  0.00000000000E+00 0.  1.
</event>
<event>
 5   0  0.8936300E+00  0.8261510E+02  0.7957747E-01  0.1320683E+00
       -2   -1    0    0    0  501  0.00000000000E+00  0.00000000000E+00  0.11149156744E+03  0.11149156744E+03  0.00000000000E+00 0.  1.
        1   -1    0    0  501    0  0.00000000000E+00  0.00000000000E+00 -0.15304420532E+02  0.15304420532E+02  0.00000000000E+00 0. -1.
      -24    2    1    2    0    0  0.00000000000E+00  0.00000000000E+00  0.96187146907E+02  0.12679598797E+03  0.82615103554E+02 0.  0.
       11    1    3    3    0    0 -0.29373018508E+02 -0.15540501265E+02  0.10435681380E+02  0.34830803058E+02  0.00000000000E+00 0. -1.
      -12    1    3    3    0    0  0.29373018508E+02  0.15540501265E+02  0.85751465527E+02  0.91965184911E+02  0.00000000000E+00 0.  1.
</event>
<event>
 5   0  0.8936300E+00  0.8076255E+02  0.7957747E-01  0.1325528E+00
        1   -1    0    0  501    0  0.00000000000E+00  0.00000000000E+00  0.11923959429E+02  0.11923959429E+02  0.00000000000E+00 0. -1.
       -2   -1    0    0    0  501  0.00000000000E+00  0.00000000000E+00 -0.13675384577E+03  0.13675384577E+03  0.00000000000E+00 0.  1.
      -24    2    1    2    0    0  0.00000000000E+00  0.00000000000E+00 -0.12482988634E+03  0.14867780520E+03  0.80762548467E+02 0.  0.
       11    1    3    3    0    0  0.27264497919E+02 -0.27767230179E+02 -0.42564051043E+02  0.57672093423E+02  0.00000000000E+00 0. -1.
      -12    1    3    3    0    0 -0.27264497919E+02  0.27767230179E+02 -0.82265835301E+02  0.91005711779E+02  0.00000000000E+00 0.  1.
</event>
<event>
 5   0  0.8936300E+00  0.8077572E+02  0.7957747E-01  0.1325493E+00
        1   -1    0    0  501    0  0.00000000000E+00  0.00000000000E+00  0.12150279110E+02  0.12150279110E+02  0.00000000000E+00 0. -1.
       -2   -1    0    0    0  501  0.00000000000E+00  0.00000000000E+00 -0.13425036742E+03  0.13425036742E+03  0.00000000000E+00 0.  1.
      -24    2    1    2    0    0  0.00000000000E+00  0.00000000000E+00 -0.12210008831E+03  0.14640064653E+03  0.80775724936E+02 0.  0.
       11    1    3    3    0    0  0.56723695001E+01 -0.29356893746E+02 -0.11840668357E+02  0.32159048700E+02  0.00000000000E+00 0. -1.
      -12    1    3    3    0    0 -0.56723695001E+01  0.29356893746E+02 -0.11025941995E+03  0.11424159783E+03  0.00000000000E+00 0.  1.
</event>
<event>
 5   0  0.8936300E+00  0.8107320E+02  0.7957747E-01  0.1324705E+00
       -4   -1    0    0    0  501  0.00000000000E+00  0.00000000000E+00  0.20317371203E+02  0.20317371203E+02  0.00000000000E+00 0.  1.
        3   -1    0    0  501    0  0.00000000000E+00  0.00000000000E+00 -0.80877388833E+02  0.80877388833E+02  0.00000000000E+00 0. -1.
      -24    2    1    2    0    0  0.00000000000E+00  0.00000000000E+00 -0.60560017631E+02  0.10119476004E+03  0.81073199785E+02 0.  0.
       11    1    3    3    0    0  0.29863577516E+01  0.31098970712E+02 -0.62519856621E+02  0.69891321234E+02  0.00000000000E+00 0. -1.
      -12    1    3    3    0    0 -0.29863577516E+01 -0.31098970712E+02  0.19598389902E+01  0.31303438802E+02  0.00000000000E+00 0.  1.
</event>
<event>
 5   0  0.8936300E+00  0.7962924E+02  0.7957747E-01  0.1328564E+00
       -2   -1    0    0    0  501  0.00000000000E+00  0.00000000000E+00  0.74222710370E+01  0.74222710370E+01  0.00000000000E+00 0.  1.
        1   -1    0    0  501    0  0.00000000000E+00  0.00000000000E+00 -0.21357400192E+03  0.21357400192E+03  0.00000000000E+00 0. -1.
      -24    2    1    2    0    0  0.00000000000E+00  0.00000000000E+00 -0.20615173088E+03  0.22099627295E+03  0.79629244093E+02 0.  0.
       11    1    3    3    0    0 -0.39804787404E+02 -0.40580813032E+00 -0.10089349283E+03  0.10846235603E+03  0.00000000000E+00 0. -1.
      -12    1    3    3    0    0  0.39804787404E+02  0.40580813032E+00 -0.10525823805E+03  0.11253391692E+03  0.00000000000E+00 0.  1.
</event>
<event>
 5   0  0.8936300E+00  0.7706246E+02  0.7957747E-01  0.1335659E+00
       -2   -1    0    0    0  501  0.00000000000E+00  0.00000000000E+00  0.15480473237E+03  0.15480473237E+03  0.00000000000E+00 0.  1.
        1   -1    0    0  501    0  0.00000000000E+00  0.00000000000E+00 -0.95905053181E+01  0.95905053181E+01  0.00000000000E+00 0. -1.
      -24    2    1    2    0    0  0.00000000000E+00  0.00000000000E+00  0.14521422706E+03  0.16439523769E+03  0.77062458022E+02 0.  0.
       11    1    3    3    0    0  0.12258767981E+02  0.14914180485E+02  0.14713309505E+01  0.19361688633E+02  0.00000000000E+00 0. -1.
      -12    1    3    3    0    0 -0.12258767981E+02 -0.14914180485E+02  0.14374289611E+03  0.14503354906E+03  0.00000000000E+00 0.  1.
</event>
<event>
 5   0  0.8936300E+00  0.8420752E+02  0.7957747E-01  0.1316633E+00
        1   -1    0    0  501    0  0.00000000000E+00  0.00000000000E+00  0.53803425481E+02  0.53803425481E+02  0.00000000000E+00 0. -1.
       -2   -1    0    0    0  501  0.00000000000E+00  0.00000000000E+00 -0.32948213325E+02  0.32948213325E+02  0.00000000000E+00 0.  1.
      -24    2    1    2    0    0  0.00000000000E+00  0.00000000000E+00  0.20855212157E+02  0.86751638806E+02  0.84207523187E+02 0.  0.
       11    1    3    3    0    0 -0.35467787639E+02  0.19604366491E+02  0.22193317613E+02  0.46204312485E+02  0.00000000000E+00 0. -1.
      -12    1    3    3    0    0  0.35467787639E+02 -0.19604366491E+02 -0.13381054561E+01  0.40547326321E+02  0.00000000000E+00 0.  1.
</event>
<event>
 5   0  0.8936300E+00  0.8217040E+02  0.7957747E-01  0.1321833E+00
        1   -1    0    0  501    0  0.00000000000E+00  0.00000000000E+00  0.17615680202E+03  0.17615680202E+03  0.00000000000E+00 0. -1.
       -2   -1    0    0    0  501  0.00000000000E+00  0.00000000000E+00 -0.95823354630E+01  0.95823354630E+01  0.00000000000E+00 0.  1.
      -24    2    1    2    0    0  0.00000000000E+00  0.00000000000E+00  0.16657446656E+03  0.18573913748E+03  0.82170397858E+02 0.  0.
       11    1    3    3    0    0 -0.13171638391E+02 -0.32538661440E+02  0.13154255230E+03  0.13614587622E+03  0.00000000000E+00 0. -1.
      -12    1    3    3    0    0  0.13171638391E+02  0.32538661440E+02  0.35031914259E+02  0.49593261264E+02  0.00000000000E+00 0.  1.
</event>
<event>
 5   0  0.8936300E+00  0.8863357E+02  0.7957747E-01  0.1305886E+00
        1   -1    0    0  501    0  0.00000000000E+00  0.00000000000E+00  0.16062983616E+03  0.16062983616E+03  0.00000000000E+00 0. -1.
       -2   -1    0    0    0  501  0.00000000000E+00  0.00000000000E+00 -0.12226729702E+02  0.12226729702E+02  0.00000000000E+00 0.  1.
      -24    2    1    2    0    0  0.00000000000E+00  0.00000000000E+00  0.14840310646E+03  0.17285656586E+03  0.88633573520E+02 0.  0.
       11    1    3    3    0    0 -0.40220733736E+02 -0.17913828002E+02  0.84023656111E+02  0.94860884680E+02  0.00000000000E+00 0. -1.
      -12    1    3    3    0    0  0.40220733736E+02  0.17913828002E+02  0.64379450344E+02  0.77995681179E+02  0.00000000000E+00 0.  1.
</event>
<event>
 5   0  0.8936300E+00  0.8089487E+02  0.7957747E-01  0.1325177E+00
        1   -1    0    0  501    0  0.00000000000E+00  0.00000000000E+00  0.34643067514E+01  0.34643067514E+01  0.00000000000E+00 0. -1.
       -2   -1    0    0    0  501  0.00000000000E+00  0.00000000000E+00 -0.47224308596E+03  0.47224308596E+03  0.00000000000E+00 0.  1.
      -24    2    1    2    0    0  0.00000000000E+00  0.00000000000E+00 -0.46877877921E+03  0.47570739271E+03  0.80894867846E+02 0.  0.
       11    1    3    3    0    0  0.15534895569E+02  0.19828590554E+01 -0.15088509999E+02  0.21746904248E+02  0.00000000000E+00 0. -1.
      -12    1    3    3    0    0 -0.15534895569E+02 -0.19828590554E+01 -0.45369026921E+03  0.45396048846E+03  0.00000000000E+00 0.  1.
</event>
<event>
 5   0  0.8936300E+00  0.8041324E+02  0.7957747E-01  0.1326458E+00
        1   -1    0    0  501    0  0.00000000000E+00  0.00000000000E+00  0.10096786161E+02  0.10096786161E+02  0.00000000000E+00 0. -1.
       -2   -1    0    0    0  501  0.00000000000E+00  0.00000000000E+00 -0.16010760265E+03  0.16010760265E+03  0.00000000000E+00 0.  1.
      -24    2    1    2    0    0  0.00000000000E+00  0.00000000000E+00 -0.15001081649E+03  0.17020438881E+03  0.80413238382E+02 0.  0.
       11    1    3    3    0    0 -0.17502376351E+02 -0.32783267677E+02 -0.42523962835E+02  0.56474447609E+02  0.00000000000E+00 0. -1.
      -12    1    3    3    0    0  0.17502376351E+02  0.32783267677E+02 -0.10748685365E+03  0.11372994120E+03  0.00000000000E+00 0.  1.
</event>
<event>
 4   0  0.8936300E+00  0.3594714E+02  0.7957747E-01  0.1525212E+00
       -2   -1    0    0    0  501  0.00000000000E+00  0.00000000000E+00  0.48423162400E+01  0.48423162400E+01  0.00000000000E+00 0.  1.
        1   -1    0    0  501    0  0.00000000000E+00  0.00000000000E+00 -0.66713761322E+02  0.66713761322E+02  0.00000000000E+00 0. -1.
       11    1    1    2    0    0 -0.79126824702E+01  0.95221309154E+01 -0.56872120338E+02  0.58204120067E+02  0.00000000000E+00 0. -1.
      -12    1    1    2    0    0  0.79126824702E+01 -0.95221309154E+01 -0.49993247436E+01  0.13351957495E+02  0.00000000000E+00 0.  1.
</event>
<event>
 5   0  0.8936300E+00  0.8021860E+02  0.7957747E-01  0.1326978E+00
        1   -1    0    0  501    0  0.00000000000E+00  0.00000000000E+00  0.44720548467E+02  0.44720548467E+02  0.00000000000E+00 0. -1.
       -2   -1    0    0    0  501  0.00000000000E+00  0.00000000000E+00 -0.35973526975E+02  0.35973526975E+02  0.00000000000E+00 0.  1.
      -24    2    1    2    0    0  0.00000000000E+00  0.00000000000E+00  0.87470214924E+01  0.80694075442E+02  0.80218597760E+02 0.  0.
       11    1    3    3    0    0  0.29329608512E+02 -0.23053759283E+02  0.19193592002E+02  0.41953494807E+02  0.00000000000E+00 0. -1.
      -12    1    3    3    0    0 -0.29329608512E+02  0.23053759283E+02 -0.10446570509E+02  0.38740580636E+02  0.00000000000E+00 0.  1.
</event>
<event>
 5   0  0.8936300E+00  0.7891267E+02  0.7957747E-01  0.1330514E+00
        1   -1    0    0  501    0  0.00000000000E+00  0.00000000000E+00  0.58795359267E+01  0.58795359267E+01  0.00000000000E+00 0. -1.
       -2   -1    0    0    0  501  0.00000000000E+00  0.00000000000E+00 -0.26478317429E+03  0.26478317429E+03  0.00000000000E+00 0.  1.
      -24    2    1    2    0    0  0.00000000000E+00  0.00000000000E+00 -0.25890363836E+03  0.27066271022E+03  0.78912665296E+02 0.  0.
       11    1    3    3    0    0  0.24849344784E+02 -0.11354792449E+02 -0.31812144739E+02  0.41933683366E+02  0.00000000000E+00 0. -1.
      -12    1    3    3    0    0 -0.24849344784E+02  0.11354792449E+02 -0.22709149362E+03  0.22872902685E+03  0.00000000000E+00 0.  1.
</event>
<event>
 5   0  0.8936300E+00  0.8228653E+02  0.7957747E-01  0.1321532E+00
        1   -1    0    0  501    0  0.00000000000E+00  0.00000000000E+00  0.14099469934E+03  0.14099469934E+03  0.00000000000E+00 0. -1.
       -2   -1    0    0    0  501  0.00000000000E+00  0.00000000000E+00 -0.12005899253E+02  0.12005899253E+02  0.00000000000E+00 0.  1.
      -24    2    1    2    0    0  0.00000000000E+00  0.00000000000E+00  0.12898880009E+03  0.15300059859E+03  0.82286527585E+02 0.  0.
       11    1    3    3    0    0 -0.31493021275E+02 -0.21812335493E+02  0.36592800843E+02  0.52977556023E+02  0.00000000000E+00 0. -1.
      -12    1    3    3    0    0  0.31493021275E+02  0.21812335493E+02  0.92395999245E+02  0.10002304257E+03  0.00000000000E+00 0.  1.
</event>
<event>
 5   0  0.8936300E+00  0.8177691E+02  0.7957747E-01  0.1322857E+00
        1   -1    0    0  501    0  0.00000000000E+00  0.00000000000E+00  0.22220883443E+03  0.22220883443E+03  0.00000000000E+00 0. -1.
       -2   -1    0    0    0  501  0.00000000000E+00  0.00000000000E+00 -0.75238498952E+01  0.75238498952E+01  0.00000000000E+00 0.  1.
      -24    2    1    2    0    0  0.00000000000E+00  0.00000000000E+00  0.21468498454E+03  0.22973268433E+03  0.81776913996E+02 0.  0.
       11    1    3    3    0    0  0.20638340464E+02  0.23168843299E+02  0.18215166489E+03  0.18477544593E+03  0.00000000000E+00 0. -1.
      -12    1    3    3    0    0 -0.20638340464E+02 -0.23168843299E+02  0.32533319647E+02  0.44957238396E+02  0.00000000000E+00 0.  1.
</event>
<event>
 5   0  0.8936300E+00  0.8029936E+02  0.7957747E-01  0.1326762E+00
        1   -1    0    0  501    0  0.00000000000E+00  0.00000000000E+00  0.75844165862E+02  0.75844165862E+02  0.00000000000E+00 0. -1.
       -2   -1    0    0    0  501  0.00000000000E+00  0.00000000000E+00 -0.21254063468E+02  0.21254063468E+02  0.00000000000E+00 0.  1.
      -24    2    1    2    0    0  0.00000000000E+00  0.00000000000E+00  0.54590102395E+02  0.97098229330E+02  0.80299357778E+02 0.  0.
       11    1    3    3    0    0 -0.76631425808E+01 -0.35635826731E+02  0.47649958738E+02  0.59992953492E+02  0.00000000000E+00 0. -1.
      -12    1    3    3    0    0  0.76631425808E+01  0.35635826731E+02  0.69401436564E+01  0.37105275837E+02  0.00000000000E+00 0.  1.
</event>
<event>
 5   0  0.8936300E+00  0.7027934E+02  0.7957747E-01  0.1356021E+00
        1   -1    0    0  501    0  0.00000000000E+00  0.00000000000E+00  0.33034275227E+01  0.33034275227E+01  0.00000000000E+00 0. -1.
       -2   -1    0    0    0  501  0.00000000000E+00  0.00000000000E+00 -0.37379248004E+03  0.37379248004E+03  0.00000000000E+00 0.  1.
      -24    2    1    2    0    0  0.00000000000E+00  0.00000000000E+00 -0.37048905252E+03  0.37709590756E+03  0.70279338823E+02 0.  0.
       11    1    3    3    0    0  0.18794785355E+02 -0.25994995837E+00 -0.25938730997E+02  0.32033252976E+02  0.00000000000E+00 0. -1.
      -12    1    3    3    0    0 -0.18794785355E+02  0.25994995837E+00 -0.34455032152E+03  0.34506265459E+03  0.00000000000E+00 0.  1.
</event>
<event>
 5   0  0.8936300E+00  0.8050785E+02  0.7957747E-01  0.1326205E+00
        1   -1    0    0  501    0  0.00000000000E+00  0.00000000000E+00  0.41447770547E+02  0.41447770547E+02  0.00000000000E+00 0. -1.
       -2   -1    0    0    0  501  0.00000000000E+00  0.00000000000E+00 -0.39094467879E+02  0.39094467879E+02  0.00000000000E+00 0.  1.
      -24    2    1    2    0    0  0.00000000000E+00  0.00000000000E+00  0.23533026676E+01  0.80542238426E+02  0.80507851401E+02 0.  0.
       11    1    3    3    0    0  0.22468162253E+02  0.49090547800E+01  0.34228035320E+02  0.41236822571E+02  0.00000000000E+00 0. -1.
      -12    1    3    3    0    0 -0.22468162253E+02 -0.49090547800E+01 -0.31874732653E+02  0.39305415855E+02  0.00000000000E+00 0.  1.
</event>
<event>
 5   0  0.8936300E+00  0.7997958E+02  0.7957747E-01  0.1327620E+00
        1   -1    0    0  501    0  0.00000000000E+00  0.00000000000E+00  0.14262478419E+02  0.14262478419E+02  0.00000000000E+00 0. -1.
       -2   -1    0    0    0  501  0.00000000000E+00  0.00000000000E+00 -0.11212520094E+03  0.11212520094E+03  0.00000000000E+00 0.  1.
      -24    2    1    2    0    0  0.00000000000E+00  0.00000000000E+00 -0.97862722522E+02  0.12638767936E+03  0.79979578861E+02 0.  0.
       11    1    3    3    0    0  0.22123704296E+01  0.14145727460E+02  0.10073276993E+02  0.17506201691E+02  0.00000000000E+00 0. -1.
      -12    1    3    3    0    0 -0.22123704296E+01 -0.14145727460E+02 -0.10793599951E+03  0.10888147767E+03  0.00000000000E+00 0.  1.
</event>
<event>
 5   0  0.8936300E+00  0.8756365E+02  0.7957747E-01  0.1308418E+00
        1   -1    0    0  501    0  0.00000000000E+00  0.00000000000E+00  0.33762488496E+02  0.33762488496E+02  0.00000000000E+00 0. -1.
       -2   -1    0    0    0  501  0.00000000000E+00  0.00000000000E+00 -0.56774499483E+02  0.56774499483E+02  0.00000000000E+00 0.  1.
      -24    2    1    2    0    0  0.00000000000E+00  0.00000000000E+00 -0.23012010987E+02  0.90536987979E+02  0.87563654233E+02 0.  0.
       11    1    3    3    0    0  0.14302055660E+01 -0.36891186479E+02  0.12826991438E+02  0.39083715754E+02  0.00000000000E+00 0. -1.
      -12    1    3    3    0    0 -0.14302055660E+01  0.36891186479E+02 -0.35839002425E+02  0.51453272225E+02  0.00000000000E+00 0.  1.
</event>
<event>
 5   0  0.8936300E+00  0.8041776E+02  0.7957747E-01  0.1326446E+00
        1   -1    0    0  501    0  0.00000000000E+00  0.00000000000E+00  0.37867684771E+02  0.37867684771E+02  0.00000000000E+00 0. -1.
       -2   -1    0    0    0  501  0.00000000000E+00  0.00000000000E+00 -0.42694825840E+02  0.42694825840E+02  0.00000000000E+00 0.  1.
      -24    2    1    2    0    0  0.00000000000E+00  0.00000000000E+00 -0.48271410694E+01  0.80562510610E+02  0.80417764362E+02 0.  0.
       11    1    3    3    0    0 -0.37937380643E+02 -0.10143223609E+02 -0.11067659157E+02  0.40799790618E+02  0.00000000000E+00 0. -1.
      -12    1    3    3    0    0  0.37937380643E+02  0.10143223609E+02  0.62405180876E+01  0.39762719993E+02  0.00000000000E+00 0.  1.
</event>
<event>
 5   0  0.8936300E+00  0.8075904E+02  0.7957747E-01  0.1325537E+00
        1   -1    0    0  501    0  0.00000000000E+00  0.00000000000E+00  0.71018476573E+02  0.71018476573E+02  0.00000000000E+00 0. -1.
       -2   -1    0    0    0  501  0.00000000000E+00  0.00000000000E+00 -0.22958895818E+02  0.22958895818E+02  0.00000000000E+00 0.  1.
      -24    2    1    2    0    0  0.00000000000E+00  0.00000000000E+00  0.48059580755E+02  0.93977372392E+02  0.80759044195E+02 0.  0.
       11    1    3    3    0    0  0.39512567582E+02 -0.72013869748E+01  0.28884263607E+02  0.49471240690E+02  0.00000000000E+00 0. -1.
      -12    1    3    3    0    0 -0.39512567582E+02  0.72013869748E+01  0.19175317148E+02  0.44506131701E+02  0.00000000000E+00 0.  1.
</event>
<event>
 5   0  0.8936300E+00  0.8014938E+02  0.7957747E-01  0.1327164E+00
        1   -1    0    0  501    0  0.00000000000E+00  0.00000000000E+00  0.51349087200E+02  0.51349087200E+02  0.00000000000E+00 0. -1.
       -2   -1    0    0    0  501  0.00000000000E+00  0.00000000000E+00 -0.31275741418E+02  0.31275741418E+02  0.00000000000E+00 0.  1.
      -24    2    1    2    0    0  0.00000000000E+00  0.00000000000E+00  0.20073345781E+02  0.82624828618E+02  0.80149379868E+02 0.  0.
       11    1    3    3    0    0  0.31940513552E+02 -0.99961962367E+01  0.32759699103E+02  0.46832875531E+02  0.00000000000E+00 0. -1.
      -12    1    3    3    0    0 -0.31940513552E+02  0.99961962367E+01 -0.12686353321E+02  0.35791953087E+02  0.00000000000E+00 0.  1.
</event>
<event>
 5   0  0.8936300E+00  0.8114718E+02  0.7957747E-01  0.1324510E+00
        1   -1    0    0  501    0  0.00000000000E+00  0.00000000000E+00  0.46387591136E+01  0.46387591136E+01  0.00000000000E+00 0. -1.
       -2   -1    0    0    0  501  0.00000000000E+00  0.00000000000E+00 -0.35488285617E+03  0.35488285617E+03  0.00000000000E+00 0.  1.
      -24    2    1    2    0    0  0.00000000000E+00  0.00000000000E+00 -0.35024409706E+03  0.35952161528E+03  0.81147176989E+02 0.  0.
       11    1    3    3    0    0  0.11995673835E+02  0.35841378948E+02 -0.10974938007E+03  0.11607509234E+03  0.00000000000E+00 0. -1.
      -12    1    3    3    0    0 -0.11995673835E+02 -0.35841378948E+02 -0.24049471699E+03  0.24344652295E+03  0.00000000000E+00 0.  1.
</event>
<event>
 5   0  0.8936300E+00  0.7914037E+02  0.7957747E-01  0.1329892E+00
        1   -1    0    0  501    0  0.00000000000E+00  0.00000000000E+00  0.65276186502E+02  0.65276186502E+02  0.00000000000E+00 0. -1.
       -2   -1    0    0    0  501  0.00000000000E+00  0.00000000000E+00 -0.23987299880E+02  0.23987299880E+02  0.00000000000E+00 0.  1.
      -24    2    1    2    0    0  0.00000000000E+00  0.00000000000E+00  0.41288886623E+02  0.89263486382E+02  0.79140367971E+02 0.  0.
       11    1    3    3    0    0 -0.27885096476E+02  0.11056327522E+02  0.49752008372E+02  0.58095467300E+02  0.00000000000E+00 0. -1.
      -12    1    3    3    0    0  0.27885096476E+02 -0.11056327522E+02 -0.84631217492E+01  0.31168019082E+02  0.00000000000E+00 0.  1.
</event>
<event>
 5   0  0.8936300E+00  0.7932289E+02  0.7957747E-01  0.1329395E+00
        1   -1    0    0  501    0  0.00000000000E+00  0.00000000000E+00  0.17958959835E+03  0.17958959835E+03  0.00000000000E+00 0. -1.
       -2   -1    0    0    0  501  0.00000000000E+00  0.00000000000E+00 -0.87590278764E+01  0.87590278764E+01  0.00000000000E+00 0.  1.
      -24    2    1    2    0    0  0.00000000000E+00  0.00000000000E+00  0.17083057048E+03  0.18834862623E+03  0.79322891987E+02 0.  0.
       11    1    3    3    0    0  0.24569363765E+02 -0.22161471939E+02  0.13734184021E+03  0.14127124813E+03  0.00000000000E+00 0. -1.
      -12    1    3    3    0    0 -0.24569363765E+02  0.22161471939E+02  0.33488730263E+02  0.47077378101E+02  0.00000000000E+00 0.  1.
</event>
<event>
 5   0  0.8936300E+00  0.8500865E+02  0.7957747E-01  0.1314633E+00
        1   -1    0    0  501    0  0.00000000000E+00  0.00000000000E+00  0.65574760772E+01  0.65574760772E+01  0.00000000000E+00 0. -1.
       -2   -1    0    0    0  501  0.00000000000E+00  0.00000000000E+00 -0.27550501370E+03  0.27550501370E+03  0.00000000000E+00 0.  1.
      -24    2    1    2    0    0  0.00000000000E+00  0.00000000000E+00 -0.26894753762E+03  0.28206248978E+03  0.85008647478E+02 0.  0.
       11    1    3    3    0    0  0.38334940417E+02 -0.13770379461E+02 -0.94186293784E+02  0.10261700124E+03  0.00000000000E+00 0. -1.
      -12    1    3    3    0    0 -0.38334940417E+02  0.13770379461E+02 -0.17476124384E+03  0.17944548854E+03  0.00000000000E+00 0.  1.
</event>
<event>
 5   0  0.8936300E+00  0.8245224E+02  0.7957747E-01  0.1321104E+00
        1   -1    0    0  501    0  0.00000000000E+00  0.00000000000E+00  0.49313654124E+01  0.49313654124E+01  0.00000000000E+00 0. -1.
       -2   -1    0    0    0  501  0.00000000000E+00  0.00000000000E+00 -0.34464954288E+03  0.34464954288E+03  0.00000000000E+00 0.  1.
      -24    2    1    2    0    0  0.00000000000E+00  0.00000000000E+00 -0.33971817747E+03  0.34958090829E+03  0.82452236722E+02 0.  0.
       11    1    3    3    0    0 -0.31532491387E+02  0.23922120100E+02 -0.12095838035E+03  0.12726938210E+03  0.00000000000E+00 0. -1.
      -12    1    3    3    0    0  0.31532491387E+02 -0.23922120100E+02 -0.21875979711E+03  0.22231152619E+03  0.00000000000E+00 0.  1.
</event>
<event>
 5   0  0.8936300E+00  0.8055009E+02  0.7957747E-01  0.1326093E+00
        1   -1    0    0  501    0  0.00000000000E+00  0.00000000000E+00  0.26345205941E+01  0.26345205941E+01  0.00000000000E+00 0. -1.
       -2   -1    0    0    0  501  0.00000000000E+00  0.00000000000E+00 -0.61570185198E+03  0.61570185198E+03  0.00000000000E+00 0.  1.
      -24    2    1    2    0    0  0.00000000000E+00  0.00000000000E+00 -0.61306733139E+03  0.61833637257E+03  0.80550088984E+02 0.  0.
       11    1    3    3    0    0 -0.25055687543E+02 -0.10691103243E+02 -0.78815256240E+02  0.83390237936E+02  0.00000000000E+00 0. -1.
      -12    1    3    3    0    0  0.25055687543E+02  0.10691103243E+02 -0.53425207515E+03  0.53494613464E+03  0.00000000000E+00 0.  1.
</event>
<event>
 5   0  0.8936300E+00  0.7921543E+02  0.7957747E-01  0.1329688E+00
        1   -1    0    0  501    0  0.00000000000E+00  0.00000000000E+00  0.15785790259E+02  0.15785790259E+02  0.00000000000E+00 0. -1.
       -2   -1    0    0    0  501  0.00000000000E+00  0.00000000000E+00 -0.99378675412E+02  0.99378675412E+02  0.00000000000E+00 0.  1.
      -24    2    1    2    0    0  0.00000000000E+00  0.00000000000E+00 -0.83592885152E+02  0.11516446567E+03  0.79215425930E+02 0.  0.
       11    1    3    3    0    0 -0.27889567053E+02 -0.25657944043E+02 -0.25054663980E+02  0.45430102686E+02  0.00000000000E+00 0. -1.
      -12    1    3    3    0    0  0.27889567053E+02  0.25657944043E+02 -0.58538221172E+02  0.69734362985E+02  0.00000000000E+00 0.  1.
</event>
<event>
 5   0  0.8936300E+00  0.8094307E+02  0.7957747E-01  0.1325049E+00
        1   -1    0    0  501    0  0.00000000000E+00  0.00000000000E+00  0.31772449889E+01  0.31772449889E+01  0.00000000000E+00 0. -1.
       -2   -1    0    0    0  501  0.00000000000E+00  0.00000000000E+00 -0.51552369567E+03  0.51552369567E+03  0.00000000000E+00 0.  1.
      -24    2    1    2    0    0  0.00000000000E+00  0.00000000000E+00 -0.51234645068E+03  0.51870094066E+03  0.80943068356E+02 0.  0.
       11    1    3    3    0    0 -0.25031583723E+02  0.80547851472E+01 -0.59024344534E+02  0.64616816659E+02  0.00000000000E+00 0. -1.
      -12    1    3    3    0    0  0.25031583723E+02 -0.80547851472E+01 -0.45332210614E+03  0.45408412400E+03  0.00000000000E+00 0.  1.
</event>
<event>
 5   0  0.8936300E+00  0.7970506E+02  0.7957747E-01  0.1328360E+00
        1   -1    0    0  501    0  0.00000000000E+00  0.00000000000E+00  0.19484134232E+02  0.19484134232E+02  0.00000000000E+00 0. -1.
       -2   -1    0    0    0  501  0.00000000000E+00  0.00000000000E+00 -0.81513719945E+02  0.81513719945E+02  0.00000000000E+00 0.  1.
      -24    2    1    2    0    0  0.00000000000E+00  0.00000000000E+00 -0.62029585713E+02  0.10099785418E+03  0.79705062855E+02 0.  0.
       11    1    3    3    0    0 -0.68069395540E+01  0.97372951751E+01  0.17187949417E+02  0.20894376004E+02  0.00000000000E+00 0. -1.
      -12    1    3    3    0    0  0.68069395540E+01 -0.97372951751E+01 -0.79217535130E+02  0.80103478173E+02  0.00000000000E+00 0.  1.
</event>
<event>
 5   0  0.8936300E+00  0.7544092E+02  0.7957747E-01  0.1340304E+00
        1   -1    0    0  501    0  0.00000000000E+00  0.00000000000E+00  0.38985498907E+02  0.38985498907E+02  0.00000000000E+00 0. -1.
       -2   -1    0    0    0  501  0.00000000000E+00  0.00000000000E+00 -0.36496466452E+02  0.36496466452E+02  0.00000000000E+00 0.  1.
      -24    2    1    2    0    0  0.00000000000E+00  0.00000000000E+00  0.24890324548E+01  0.75481965359E+02  0.75440916033E+02 0.  0.
       11    1    3    3    0    0 -0.15723613179E+02  0.37289853197E+01  0.35346718068E+02  0.38865509402E+02  0.00000000000E+00 0. -1.
      -12    1    3    3    0    0  0.15723613179E+02 -0.37289853197E+01 -0.32857685614E+02  0.36616455956E+02  0.00000000000E+00 0.  1.
</event>
<event>
 5   0  0.8936300E+00  0.7660347E+02  0.7957747E-01  0.1336961E+00
        1   -1    0    0  501    0  0.00000000000E+00  0.00000000000E+00  0.35727077372E+02  0.35727077372E+02  0.00000000000E+00 0. -1.
       -2   -1    0    0    0  501  0.00000000000E+00  0.00000000000E+00 -0.41061929033E+02  0.41061929033E+02  0.00000000000E+00 0.  1.
      -24    2    1    2    0    0  0.00000000000E+00  0.00000000000E+00 -0.53348516610E+01  0.76789006404E+02  0.76603465081E+02 0.  0.
       11    1    3    3    0    0 -0.14396687150E+02 -0.93436212953E+01  0.31656637770E+02  0.36009867741E+02  0.00000000000E+00 0. -1.
      -12    1    3    3    0    0  0.14396687150E+02  0.93436212953E+01 -0.36991489431E+02  0.40779138664E+02  0.00000000000E+00 0.  1.
</event>
<event>
 4   0  0.8936300E+00  0.3928100E+02  0.7957747E-01  0.1500446E+00
        1   -1    0    0  501    0  0.00000000000E+00  0.00000000000E+00  0.44063255706E+01  0.44063255706E+01  0.00000000000E+00 0. -1.
       -2   -1    0    0    0  501  0.00000000000E+00  0.00000000000E+00 -0.87544431351E+02  0.87544431351E+02  0.00000000000E+00 0.  1.
       11    1    1    2    0    0  0.14586304404E+02 -0.30641322285E+01 -0.11628175718E+02  0.18904064457E+02  0.00000000000E+00 0. -1.
      -12    1    1    2    0    0 -0.14586304404E+02  0.30641322285E+01 -0.71509930063E+02  0.73046692465E+02  0.00000000000E+00 0.  1.
</event>
<event>
 5   0  0.8936300E+00  0.7423287E+02  0.7957747E-01  0.1343852E+00
        1   -1    0    0  501    0  0.00000000000E+00  0.00000000000E+00  0.42716218830E+01  0.42716218830E+01  0.00000000000E+00 0. -1.
       -2   -1    0    0    0  501  0.00000000000E+00  0.00000000000E+00 -0.32250742579E+03  0.32250742579E+03  0.00000000000E+00 0.  1.
      -24    2    1    2    0    0  0.00000000000E+00  0.00000000000E+00 -0.31823580391E+03  0.32677904768E+03  0.74232870817E+02 0.  0.
       11    1    3    3    0    0 -0.46009895277E+01 -0.30934635370E+02 -0.71130350115E+02  0.77702300337E+02  0.00000000000E+00 0. -1.
      -12    1    3    3    0    0  0.46009895277E+01  0.30934635370E+02 -0.24710545379E+03  0.24907674734E+03  0.00000000000E+00 0.  1.
</event>
<event>
 5   0  0.8936300E+00  0.7715485E+02  0.7957747E-01  0.1335398E+00
        1   -1    0    0  501    0  0.00000000000E+00  0.00000000000E+00  0.11337558875E+02  0.11337558875E+02  0.00000000000E+00 0. -1.
       -2   -1    0    0    0  501  0.00000000000E+00  0.00000000000E+00 -0.13126439829E+03  0.13126439829E+03  0.00000000000E+00 0.  1.
      -24    2    1    2    0    0  0.00000000000E+00  0.00000000000E+00 -0.11992683941E+03  0.14260195716E+03  0.77154853218E+02 0.  0.
       11    1    3    3    0    0 -0.29339781311E+01  0.33746450126E+02 -0.25843848231E+02  0.42606755511E+02  0.00000000000E+00 0. -1.
      -12    1    3    3    0    0  0.29339781311E+01 -0.33746450126E+02 -0.94082991179E+02  0.99995201650E+02  0.00000000000E+00 0.  1.
</event>
<event>
 5   0  0.8936300E+00  0.8057408E+02  0.7957747E-01  0.1326029E+00
        1   -1    0    0  501    0  0.00000000000E+00  0.00000000000E+00  0.13466205568E+02  0.13466205568E+02  0.00000000000E+00 0. -1.
       -2   -1    0    0    0  501  0.00000000000E+00  0.00000000000E+00 -0.12052729972E+03  0.12052729972E+03  0.00000000000E+00 0.  1.
      -24    2    1    2    0    0  0.00000000000E+00  0.00000000000E+00 -0.10706109415E+03  0.13399350529E+03  0.80574075101E+02 0.  0.
       11    1    3    3    0    0  0.37398073670E+02 -0.90299244889E+01 -0.33651788805E+02  0.51113582738E+02  0.00000000000E+00 0. -1.
      -12    1    3    3    0    0 -0.37398073670E+02  0.90299244889E+01 -0.73409305349E+02  0.82879922552E+02  0.00000000000E+00 0.  1.
</event>
<event>
 5   0  0.8936300E+00  0.8159358E+02  0.7957747E-01  0.1323337E+00
        3   -1    0    0  501    0  0.00000000000E+00  0.00000000000E+00  0.18970757991E+02  0.18970757991E+02  0.00000000000E+00 0. -1.
       -4   -1    0    0    0  501  0.00000000000E+00  0.00000000000E+00 -0.87733874385E+02  0.87733874385E+02  0.00000000000E+00 0.  1.
      -24    2    1    2    0    0  0.00000000000E+00  0.00000000000E+00 -0.68763116394E+02  0.10670463238E+03  0.81593580595E+02 0.  0.
       11    1    3    3    0    0  0.10546976690E+02 -0.28920366568E+02  0.63001872318E+00  0.30789986088E+02  0.00000000000E+00 0. -1.
      -12    1    3    3    0    0 -0.10546976690E+02  0.28920366568E+02 -0.69393135117E+02  0.75914646289E+02  0.00000000000E+00 0.  1.
</event>
<event>
 5   0  0.8936300E+00  0.5729885E+02  0.7957747E-01  0.1403439E+00
        1   -1    0    0  501    0  0.00000000000E+00  0.00000000000E+00  0.20796402867E+02  0.20796402867E+02  0.00000000000E+00 0. -1.
       -2   -1    0    0    0  501  0.00000000000E+00  0.00000000000E+00 -0.39467855172E+02  0.39467855172E+02  0.00000000000E+00 0.  1.
      -24    2    1    2    0    0  0.00000000000E+00  0.00000000000E+00 -0.18671452306E+02  0.60264258039E+02  0.57298845239E+02 0.  0.
       11    1    3    3    0    0  0.27358784576E+02  0.79440723812E+01 -0.12522042163E+02  0.31119333531E+02  0.00000000000E+00 0. -1.
      -12    1    3    3    0    0 -0.27358784576E+02 -0.79440723812E+01 -0.61494101430E+01  0.29144924508E+02  0.00000000000E+00 0.  1.
</event>
<event>
 5   0  0.8936300E+00  0.8096763E+02  0.7957747E-01  0.1324984E+00
        1   -1    0    0  501    0  0.00000000000E+00  0.00000000000E+00  0.42638608713E+01  0.42638608713E+01  0.00000000000E+00 0. -1.
       -2   -1    0    0    0  501  0.00000000000E+00  0.00000000000E+00 -0.38437920529E+03  0.38437920529E+03  0.00000000000E+00 0.  1.
      -24    2    1    2    0    0  0.00000000000E+00  0.00000000000E+00 -0.38011534442E+03  0.38864306616E+03  0.80967634353E+02 0.  0.
       11    1    3    3    0    0  0.20014153117E+02 -0.34993568093E+02 -0.20790386824E+03  0.21177614257E+03  0.00000000000E+00 0. -1.
      -12    1    3    3    0    0 -0.20014153117E+02  0.34993568093E+02 -0.17221147618E+03  0.17686692360E+03  0.00000000000E+00 0.  1.
</event>
<event>
 5   0  0.8936300E+00  0.7793808E+02  0.7957747E-01  0.1333204E+00
        1   -1    0    0  501    0  0.00000000000E+00  0.00000000000E+00  0.12261285289E+03  0.12261285289E+03  0.00000000000E+00 0. -1.
       -2   -1    0    0    0  501  0.00000000000E+00  0.00000000000E+00 -0.12385210449E+02  0.12385210449E+02  0.00000000000E+00 0.  1.
      -24    2    1    2    0    0  0.00000000000E+00  0.00000000000E+00  0.11022764244E+03  0.13499806334E+03  0.77938077647E+02 0.  0.
       11    1    3    3    0    0 -0.20490418510E+02 -0.16031344531E+02  0.10536692517E+03  0.10853133270E+03  0.00000000000E+00 0. -1.
      -12    1    3    3    0    0  0.20490418510E+02  0.16031344531E+02  0.48607172694E+01  0.26466730636E+02  0.00000000000E+00 0.  1.
</event>
<event>
 5   0  0.8936300E+00  0.8249880E+02  0.7957747E-01  0.1320983E+00
        1   -1    0    0  501    0  0.00000000000E+00  0.00000000000E+00  0.26318491318E+03  0.26318491318E+03  0.00000000000E+00 0. -1.
       -2   -1    0    0    0  501  0.00000000000E+00  0.00000000000E+00 -0.64650851635E+01  0.64650851635E+01  0.00000000000E+00 0.  1.
      -24    2    1    2    0    0  0.00000000000E+00  0.00000000000E+00  0.25671982802E+03  0.26964999834E+03  0.82498797020E+02 0.  0.
       11    1    3    3    0    0 -0.34860796109E+02 -0.11046060665E+02  0.19073857986E+03  0.19421250322E+03  0.00000000000E+00 0. -1.
      -12    1    3    3    0    0  0.34860796109E+02  0.11046060665E+02  0.65981248157E+02  0.75437495120E+02  0.00000000000E+00 0.  1.
</event>
<event>
 5   0  0.8936300E+00  0.8179571E+02  0.7957747E-01  0.1322808E+00
        1   -1    0    0  501    0  0.00000000000E+00  0.00000000000E+00  0.64195540319E+02  0.64195540319E+02  0.00000000000E+00 0. -1.
       -2   -1    0    0    0  501  0.00000000000E+00  0.00000000000E+00 -0.26055308481E+02  0.26055308481E+02  0.00000000000E+00 0.  1.
      -24    2    1    2    0    0  0.00000000000E+00  0.00000000000E+00  0.38140231838E+02  0.90250848799E+02  0.81795711528E+02 0.  0.
       11    1    3    3    0    0 -0.19351642453E+02 -0.16422325976E+02  0.54454656868E+02  0.60079018889E+02  0.00000000000E+00 0. -1.
      -12    1    3    3    0    0  0.19351642453E+02  0.16422325976E+02 -0.16314425030E+02  0.30171829910E+02  0.00000000000E+00 0.  1.
</event>
<event>
 5   0  0.8936300E+00  0.8339234E+02  0.7957747E-01  0.1318694E+00
        1   -1    0    0  501    0  0.00000000000E+00  0.00000000000E+00  0.12428402496E+02  0.12428402496E+02  0.00000000000E+00 0. -1.
       -2   -1    0    0    0  501  0.00000000000E+00  0.00000000000E+00 -0.13988688752E+03  0.13988688752E+03  0.00000000000E+00 0.  1.
      -24    2    1    2    0    0  0.00000000000E+00  0.00000000000E+00 -0.12745848503E+03  0.15231529002E+03  0.83392338785E+02 0.  0.
       11    1    3    3    0    0  0.29783272853E+02  0.24563290626E+02 -0.92502809101E+02  0.10023556395E+03  0.00000000000E+00 0. -1.
      -12    1    3    3    0    0 -0.29783272853E+02 -0.24563290626E+02 -0.34955675926E+02  0.52079726071E+02  0.00000000000E+00 0.  1.
</event>
<event>
 5   0  0.8936300E+00  0.8058855E+02  0.7957747E-01  0.1325990E+00
        1   -1    0    0  501    0  0.00000000000E+00  0.00000000000E+00  0.18235512140E+02  0.18235512140E+02  0.00000000000E+00 0. -1.
       -2   -1    0    0    0  501  0.00000000000E+00  0.00000000000E+00 -0.89036632274E+02  0.89036632274E+02  0.00000000000E+00 0.  1.
      -24    2    1    2    0    0  0.00000000000E+00  0.00000000000E+00 -0.70801120134E+02  0.10727214441E+03  0.80588549776E+02 0.  0.
       11    1    3    3    0    0  0.64839115413E+01  0.77969971250E+01  0.16509180956E+02  0.19374914939E+02  0.00000000000E+00 0. -1.
      -12    1    3    3    0    0 -0.64839115413E+01 -0.77969971250E+01 -0.87310301090E+02  0.87897229475E+02  0.00000000000E+00 0.  1.
</event>
<event>
 5   0  0.8936300E+00  0.7144684E+02  0.7957747E-01  0.1352335E+00
       -2   -1    0    0    0  501  0.00000000000E+00  0.00000000000E+00  0.11711065067E+03  0.11711065067E+03  0.00000000000E+00 0.  1.
        1   -1    0    0  501    0  0.00000000000E+00  0.00000000000E+00 -0.10897068818E+02  0.10897068818E+02  0.00000000000E+00 0. -1.
      -24    2    1    2    0    0  0.00000000000E+00  0.00000000000E+00  0.10621358185E+03  0.12800771949E+03  0.71446842329E+02 0.  0.
       11    1    3    3    0    0  0.32684353261E+02 -0.61835846904E+01  0.29769966060E+02  0.44640279423E+02  0.00000000000E+00 0. -1.
      -12    1    3    3    0    0 -0.32684353261E+02  0.61835846904E+01  0.76443615791E+02  0.83367440065E+02  0.00000000000E+00 0.  1.
</event>
<event>
 5   0  0.8936300E+00  0.8054753E+02  0.7957747E-01  0.1326100E+00
        1   -1    0    0  501    0  0.00000000000E+00  0.00000000000E+00  0.12366042626E+03  0.12366042626E+03  0.00000000000E+00 0. -1.
       -2   -1    0    0    0  501  0.00000000000E+00  0.00000000000E+00 -0.13116371163E+02  0.13116371163E+02  0.00000000000E+00 0.  1.
      -24    2    1    2    0    0  0.00000000000E+00  0.00000000000E+00  0.11054405509E+03  0.13677679742E+03  0.80547527557E+02 0.  0.
       11    1    3    3    0    0  0.32068393769E+02 -0.14450540963E+02  0.88581229263E+02  0.95309150614E+02  0.00000000000E+00 0. -1.
      -12    1    3    3    0    0 -0.32068393769E+02  0.14450540963E+02  0.21962825831E+02  0.41467646805E+02  0.00000000000E+00 0.  1.
</event>
<event>
 5   0  0.8936300E+00  0.8041696E+02  0.7957747E-01  0.1326448E+00
        1   -1    0    0  501    0  0.00000000000E+00  0.00000000000E+00  0.32070980001E+02  0.32070980001E+02  0.00000000000E+00 0. -1.
       -2   -1    0    0    0  501  0.00000000000E+00  0.00000000000E+00 -0.50410742621E+02  0.50410742621E+02  0.00000000000E+00 0.  1.
      -24    2    1    2    0    0  0.00000000000E+00  0.00000000000E+00 -0.18339762620E+02  0.82481722622E+02  0.80416961356E+02 0.  0.
       11    1    3    3    0    0 -0.30811015281E+02  0.24092450244E+02 -0.18734388108E+02  0.43367523784E+02  0.00000000000E+00 0. -1.
      -12    1    3    3    0    0  0.30811015281E+02 -0.24092450244E+02  0.39462548836E+00  0.39114198837E+02  0.00000000000E+00 0.  1.
</event>
<event>
 5   0  0.8936300E+00  0.8137537E+02  0.7957747E-01  0.1323909E+00
        1   -1    0    0  501    0  0.00000000000E+00  0.00000000000E+00  0.12756883530E+02  0.12756883530E+02  0.00000000000E+00 0. -1.
       -2   -1    0    0    0  501  0.00000000000E+00  0.00000000000E+00 -0.12977211435E+03  0.12977211435E+03  0.00000000000E+00 0.  1.
      -24    2    1    2    0    0  0.00000000000E+00  0.00000000000E+00 -0.11701523082E+03  0.14252899788E+03  0.81375370921E+02 0.  0.
       11    1    3    3    0    0 -0.13603475781E+02  0.57885803371E+01  0.78861624940E+01  0.16755708715E+02  0.00000000000E+00 0. -1.
      -12    1    3    3    0    0  0.13603475781E+02 -0.57885803371E+01 -0.12490139331E+03  0.12577328916E+03  0.00000000000E+00 0.  1.
</event>
<event>
 5   0  0.8936300E+00  0.8034895E+02  0.7957747E-01  0.1326629E+00
        1   -1    0    0  501    0  0.00000000000E+00  0.00000000000E+00  0.21286277521E+02  0.21286277521E+02  0.00000000000E+00 0. -1.
       -2   -1    0    0    0  501  0.00000000000E+00  0.00000000000E+00 -0.75822957492E+02  0.75822957492E+02  0.00000000000E+00 0.  1.
      -24    2    1    2    0    0  0.00000000000E+00  0.00000000000E+00 -0.54536679971E+02  0.97109235013E+02  0.80348951845E+02 0.  0.
       11    1    3    3    0    0 -0.26186871268E+02 -0.65921194458E+01  0.86815881937E+01  0.28365088387E+02  0.00000000000E+00 0. -1.
      -12    1    3    3    0    0  0.26186871268E+02  0.65921194458E+01 -0.63218268165E+02  0.68744146626E+02  0.00000000000E+00 0.  1.
</event>
<event>
 5   0  0.8936300E+00  0.8198005E+02  0.7957747E-01  0.1322328E+00
        1   -1    0    0  501    0  0.00000000000E+00  0.00000000000E+00  0.16355887453E+03  0.16355887453E+03  0.00000000000E+00 0. -1.
       -2   -1    0    0    0  501  0.00000000000E+00  0.00000000000E+00 -0.10272644575E+02  0.10272644575E+02  0.00000000000E+00 0.  1.
      -24    2    1    2    0    0  0.00000000000E+00  0.00000000000E+00  0.15328622996E+03  0.17383151911E+03  0.81980050870E+02 0.  0.
       11    1    3    3    0    0  0.28887551315E+02 -0.28293324528E+02  0.62390638343E+02  0.74347794766E+02  0.00000000000E+00 0. -1.
      -12    1    3    3    0    0 -0.28887551315E+02  0.28293324528E+02  0.90895591614E+02  0.99483724340E+02  0.00000000000E+00 0.  1.
</event>
<event>
 5   0  0.8936300E+00  0.8211506E+02  0.7957747E-01  0.1321977E+00
        1   -1    0    0  501    0  0.00000000000E+00  0.00000000000E+00  0.17386432071E+03  0.17386432071E+03  0.00000000000E+00 0. -1.
       -2   -1    0    0    0  501  0.00000000000E+00  0.00000000000E+00 -0.96956097108E+01  0.96956097108E+01  0.00000000000E+00 0.  1.
      -24    2    1    2    0    0  0.00000000000E+00  0.00000000000E+00  0.16416871100E+03  0.18355993042E+03  0.82115055775E+02 0.  0.
       11    1    3    3    0    0  0.17262803422E+02 -0.37251527478E+02  0.82530959038E+02  0.92179389677E+02  0.00000000000E+00 0. -1.
      -12    1    3    3    0    0 -0.17262803422E+02  0.37251527478E+02  0.81637751959E+02  0.91380540742E+02  0.00000000000E+00 0.  1.
</event>
<event>
 5   0  0.8936300E+00  0.8196435E+02  0.7957747E-01  0.1322369E+00
        1   -1    0    0  501    0  0.00000000000E+00  0.00000000000E+00  0.69974994493E+02  0.69974994493E+02  0.00000000000E+00 0. -1.
       -2   -1    0    0    0  501  0.00000000000E+00  0.00000000000E+00 -0.24001980791E+02  0.24001980791E+02  0.00000000000E+00 0.  1.
      -24    2    1    2    0    0  0.00000000000E+00  0.00000000000E+00  0.45973013702E+02  0.93976975283E+02  0.81964345264E+02 0.  0.
       11    1    3    3    0    0 -0.20813102797E+02 -0.15222430556E+02  0.59508167496E+02  0.64854680932E+02  0.00000000000E+00 0. -1.
      -12    1    3    3    0    0  0.20813102797E+02  0.15222430556E+02 -0.13535153794E+02  0.29122294352E+02  0.00000000000E+00 0.  1.
</event>
<event>
 5   0  0.8936300E+00  0.8033497E+02  0.7957747E-01  0.1326667E+00
        1   -1    0    0  501    0  0.00000000000E+00  0.00000000000E+00  0.23321761881E+02  0.23321761881E+02  0.00000000000E+00 0. -1.
       -2   -1    0    0    0  501  0.00000000000E+00  0.00000000000E+00 -0.69181181527E+02  0.69181181527E+02  0.00000000000E+00 0.  1.
      -24    2    1    2    0    0  0.00000000000E+00  0.00000000000E+00 -0.45859419646E+02  0.92502943408E+02  0.80334974756E+02 0.  0.
       11    1    3    3    0    0 -0.13520294905E+02  0.31918079116E+02  0.43865252031E+00  0.34666331863E+02  0.00000000000E+00 0. -1.
      -12    1    3    3    0    0  0.13520294905E+02 -0.31918079116E+02 -0.46298072166E+02  0.57836611545E+02  0.00000000000E+00 0.  1.
</event>
<event>
 5   0  0.8936300E+00  0.7990863E+02  0.7957747E-01  0.1327811E+00
       -2   -1    0    0    0  501  0.00000000000E+00  0.00000000000E+00  0.22790430996E+02  0.22790430996E+02  0.00000000000E+00 0.  1.
        1   -1    0    0  501    0  0.00000000000E+00  0.00000000000E+00 -0.70044636883E+02  0.70044636883E+02  0.00000000000E+00 0. -1.
      -24    2    1    2    0    0  0.00000000000E+00  0.00000000000E+00 -0.47254205887E+02  0.92835067879E+02  0.79908634415E+02 0.  0.
       11    1    3    3    0    0  0.29344811642E+02 -0.17954881542E+01 -0.55059361365E+02  0.62416944990E+02  0.00000000000E+00 0. -1.
      -12    1    3    3    0    0 -0.29344811642E+02  0.17954881542E+01  0.78051554776E+01  0.30418122888E+02  0.00000000000E+00 0.  1.
</event>
<event>
 5   0  0.8936300E+00  0.7936454E+02  0.7957747E-01  0.1329282E+00
       -2   -1    0    0    0  501  0.00000000000E+00  0.00000000000E+00  0.16462681780E+02  0.16462681780E+02  0.00000000000E+00 0.  1.
        1   -1    0    0  501    0  0.00000000000E+00  0.00000000000E+00 -0.95651649591E+02  0.95651649591E+02  0.00000000000E+00 0. -1.
      -24    2    1    2    0    0  0.00000000000E+00  0.00000000000E+00 -0.79188967811E+02  0.11211433137E+03  0.79364542937E+02 0.  0.
       11    1    3    3    0    0 -0.15944771494E+02 -0.19135981283E+02 -0.83232825101E+02  0.86879944129E+02  0.00000000000E+00 0. -1.
      -12    1    3    3    0    0  0.15944771494E+02  0.19135981283E+02  0.40438572892E+01  0.25234387241E+02  0.00000000000E+00 0.  1.
</event>
<event>
 5   0  0.8936300E+00  0.8058739E+02  0.7957747E-01  0.1325993E+00
        1   -1    0    0  501    0  0.00000000000E+00  0.00000000000E+00  0.96523420334E+01  0.96523420334E+01  0.00000000000E+00 0. -1.
       -2   -1    0    0    0  501  0.00000000000E+00  0.00000000000E+00 -0.16820599528E+03  0.16820599528E+03  0.00000000000E+00 0.  1.
      -24    2    1    2    0    0  0.00000000000E+00  0.00000000000E+00 -0.15855365325E+03  0.17785833732E+03  0.80587388556E+02 0.  0.
       11    1    3    3    0    0 -0.25880974271E+02  0.14936171586E+01 -0.11197148642E+02  0.28238836009E+02  0.00000000000E+00 0. -1.
      -12    1    3    3    0    0  0.25880974271E+02 -0.14936171586E+01 -0.14735650461E+03  0.14961950131E+03  0.00000000000E+00 0.  1.
</event>
<event>
 5   0  0.8936300E+00  0.8042844E+02  0.7957747E-01  0.1326417E+00
        1   -1    0    0  501    0  0.00000000000E+00  0.00000000000E+00  0.59940042135E+01  0.59940042135E+01  0.00000000000E+00 0. -1.
       -2   -1    0    0    0  501  0.00000000000E+00  0.00000000000E+00 -0.26980017062E+03  0.26980017062E+03  0.00000000000E+00 0.  1.
      -24    2    1    2    0    0  0.00000000000E+00  0.00000000000E+00 -0.26380616641E+03  0.27579417484E+03  0.80428436750E+02 0.  0.
       11    1    3    3    0    0 -0.20065806094E+02 -0.20763280979E+02 -0.35924048531E+02  0.46089995379E+02  0.00000000000E+00 0. -1.
      -12    1    3    3    0    0  0.20065806094E+02  0.20763280979E+02 -0.22788211788E+03  0.22970417946E+03  0.00000000000E+00 0.  1.
</event>
<event>
 5   0  0.8936300E+00  0.8052744E+02  0.7957747E-01  0.1326153E+00
        1   -1    0    0  501    0  0.00000000000E+00  0.00000000000E+00  0.17845526608E+02  0.17845526608E+02  0.00000000000E+00 0. -1.
       -2   -1    0    0    0  501  0.00000000000E+00  0.00000000000E+00 -0.90844448967E+02  0.90844448967E+02  0.00000000000E+00 0.  1.
      -24    2    1    2    0    0  0.00000000000E+00  0.00000000000E+00 -0.72998922359E+02  0.10868997557E+03  0.80527437094E+02 0.  0.
       11    1    3    3    0    0  0.30187022573E+00  0.40161149796E+02 -0.40354566126E+02  0.56934173269E+02  0.00000000000E+00 0. -1.
      -12    1    3    3    0    0 -0.30187022573E+00 -0.40161149796E+02 -0.32644356233E+02  0.51755802306E+02  0.00000000000E+00 0.  1.
</event>
<event>
 5   0  0.8936300E+00  0.8076952E+02  0.7957747E-01  0.1325509E+00
        1   -1    0    0  501    0  0.00000000000E+00  0.00000000000E+00  0.20106526725E+03  0.20106526725E+03  0.00000000000E+00 0. -1.
       -2   -1    0    0    0  501  0.00000000000E+00  0.00000000000E+00 -0.81114392564E+01  0.81114392564E+01  0.00000000000E+00 0.  1.
      -24    2    1    2    0    0  0.00000000000E+00  0.00000000000E+00  0.19295382800E+03  0.20917670651E+03  0.80769516574E+02 0.  0.
       11    1    3    3    0    0  0.15401967816E+02 -0.29053843539E+02  0.15718998374E+03  0.16059276891E+03  0.00000000000E+00 0. -1.
      -12    1    3    3    0    0 -0.15401967816E+02  0.29053843539E+02  0.35763844256E+02  0.48583937602E+02  0.00000000000E+00 0.  1.
</event>
<event>
 5   0  0.8936300E+00  0.8878315E+02  0.7957747E-01  0.1305535E+00
        1   -1    0    0  501    0  0.00000000000E+00  0.00000000000E+00  0.21601285009E+02  0.21601285009E+02  0.00000000000E+00 0. -1.
       -2   -1    0    0    0  501  0.00000000000E+00  0.00000000000E+00 -0.91226607939E+02  0.91226607939E+02  0.00000000000E+00 0.  1.
      -24    2    1    2    0    0  0.00000000000E+00  0.00000000000E+00 -0.69625322930E+02  0.11282789295E+03  0.88783150620E+02 0.  0.
       11    1    3    3    0    0  0.67756440417E+01 -0.28885695230E+02  0.71499742231E+01  0.30519090296E+02  0.00000000000E+00 0. -1.
      -12    1    3    3    0    0 -0.67756440417E+01  0.28885695230E+02 -0.76775297154E+02  0.82308802653E+02  0.00000000000E+00 0.  1.
</event>
<event>
 5   0  0.8936300E+00  0.7832605E+02  0.7957747E-01  0.1332128E+00
       -2   -1    0    0    0  501  0.00000000000E+00  0.00000000000E+00  0.25598480678E+03  0.25598480678E+03  0.00000000000E+00 0.  1.
        1   -1    0    0  501    0  0.00000000000E+00  0.00000000000E+00 -0.59915376725E+01  0.59915376725E+01  0.00000000000E+00 0. -1.
      -24    2    1    2    0    0  0.00000000000E+00  0.00000000000E+00  0.24999326911E+03  0.26197634445E+03  0.78326052203E+02 0.  0.
       11    1    3    3    0    0  0.12813839745E+02  0.13603363685E+02  0.98840637439E+01  0.21140972273E+02  0.00000000000E+00 0. -1.
      -12    1    3    3    0    0 -0.12813839745E+02 -0.13603363685E+02  0.24010920537E+03  0.24083537218E+03  0.00000000000E+00 0.  1.
</event>
<event>
 5   0  0.8936300E+00  0.8012357E+02  0.7957747E-01  0.1327233E+00
        1   -1    0    0  501    0  0.00000000000E+00  0.00000000000E+00  0.89136462163E+01  0.89136462163E+01  0.00000000000E+00 0. -1.
       -2   -1    0    0    0  501  0.00000000000E+00  0.00000000000E+00 -0.18005500992E+03  0.18005500992E+03  0.00000000000E+00 0.  1.
      -24    2    1    2    0    0  0.00000000000E+00  0.00000000000E+00 -0.17114136371E+03  0.18896865614E+03  0.80123571012E+02 0.  0.
       11    1    3    3    0    0  0.27349959779E+02 -0.94344178730E+01 -0.20214460574E+02  0.35293809044E+02  0.00000000000E+00 0. -1.
      -12    1    3    3    0    0 -0.27349959779E+02  0.94344178730E+01 -0.15092690313E+03  0.15367484710E+03  0.00000000000E+00 0.  1.
</event>
<event>
 5   0  0.8936300E+00  0.8046969E+02  0.7957747E-01  0.1326307E+00
        1   -1    0    0  501    0  0.00000000000E+00  0.00000000000E+00  0.24001563663E+01  0.24001563663E+01  0.00000000000E+00 0. -1.
       -2   -1    0    0    0  501  0.00000000000E+00  0.00000000000E+00 -0.67447385111E+03  0.67447385111E+03  0.00000000000E+00 0.  1.
      -24    2    1    2    0    0  0.00000000000E+00  0.00000000000E+00 -0.67207369475E+03  0.67687400748E+03  0.80469688893E+02 0.  0.
       11    1    3    3    0    0  0.14471781304E+02  0.32145611952E+02 -0.17291587789E+03  0.17647286944E+03  0.00000000000E+00 0. -1.
      -12    1    3    3    0    0 -0.14471781304E+02 -0.32145611952E+02 -0.49915781685E+03  0.50040113803E+03  0.00000000000E+00 0.  1.
</event>
<event>
 5   0  0.8936300E+00  0.8034796E+02  0.7957747E-01  0.1326632E+00
        1   -1    0    0  501    0  0.00000000000E+00  0.00000000000E+00  0.33556142105E+01  0.33556142105E+01  0.00000000000E+00 0. -1.
       -2   -1    0    0    0  501  0.00000000000E+00  0.00000000000E+00 -0.48096963669E+03  0.48096963669E+03  0.00000000000E+00 0.  1.
      -24    2    1    2    0    0  0.00000000000E+00  0.00000000000E+00 -0.47761402248E+03  0.48432525090E+03  0.80347956979E+02 0.  0.
       11    1    3    3    0    0  0.29484388292E+02 -0.67674906964E+00 -0.74371412140E+02  0.80005587842E+02  0.00000000000E+00 0. -1.
      -12    1    3    3    0    0 -0.29484388292E+02  0.67674906964E+00 -0.40324261034E+03  0.40431966306E+03  0.00000000000E+00 0.  1.
</event>
<event>
 5   0  0.8936300E+00  0.8141303E+02  0.7957747E-01  0.1323810E+00
        1   -1    0    0  501    0  0.00000000000E+00  0.00000000000E+00  0.71461631998E+01  0.71461631998E+01  0.00000000000E+00 0. -1.
       -2   -1    0    0    0  501  0.00000000000E+00  0.00000000000E+00 -0.23187549938E+03  0.23187549938E+03  0.00000000000E+00 0.  1.
      -24    2    1    2    0    0  0.00000000000E+00  0.00000000000E+00 -0.22472933618E+03  0.23902166258E+03  0.81413025016E+02 0.  0.
       11    1    3    3    0    0  0.31695933675E+02 -0.15990111612E+02 -0.53888781663E+02  0.64531516873E+02  0.00000000000E+00 0. -1.
      -12    1    3    3    0    0 -0.31695933675E+02  0.15990111612E+02 -0.17084055451E+03  0.17449014570E+03  0.00000000000E+00 0.  1.
</event>
<event>
 5   0  0.8936300E+00  0.8027879E+02  0.7957747E-01  0.1326817E+00
        1   -1    0    0  501    0  0.00000000000E+00  0.00000000000E+00  0.11779450649E+02  0.11779450649E+02  0.00000000000E+00 0. -1.
       -2   -1    0    0    0  501  0.00000000000E+00  0.00000000000E+00 -0.13677811024E+03  0.13677811024E+03  0.00000000000E+00 0.  1.
      -24    2    1    2    0    0  0.00000000000E+00  0.00000000000E+00 -0.12499865959E+03  0.14855756089E+03  0.80278789216E+02 0.  0.
       11    1    3    3    0    0  0.96926327413E+01  0.37598467420E+02 -0.43665872564E+02  0.58432014415E+02  0.00000000000E+00 0. -1.
      -12    1    3    3    0    0 -0.96926327413E+01 -0.37598467420E+02 -0.81332787028E+02  0.90125546476E+02  0.00000000000E+00 0.  1.
</event>
<event>
 5   0  0.8936300E+00  0.7998172E+02  0.7957747E-01  0.1327614E+00
        1   -1    0    0  501    0  0.00000000000E+00  0.00000000000E+00  0.52209194496E+02  0.52209194496E+02  0.00000000000E+00 0. -1.
       -2   -1    0    0    0  501  0.00000000000E+00  0.00000000000E+00 -0.30631937885E+02  0.30631937885E+02  0.00000000000E+00 0.  1.
      -24    2    1    2    0    0  0.00000000000E+00  0.00000000000E+00  0.21577256611E+02  0.82841132380E+02  0.79981717981E+02 0.  0.
       11    1    3    3    0    0  0.45134956402E+01 -0.39664838374E+02  0.13239171189E+02  0.42058848057E+02  0.00000000000E+00 0. -1.
      -12    1    3    3    0    0 -0.45134956402E+01  0.39664838374E+02  0.83380854221E+01  0.40782284323E+02  0.00000000000E+00 0.  1.
</event>
<event>
 5   0  0.8936300E+00  0.8632551E+02  0.7957747E-01  0.1311399E+00
       -2   -1    0    0    0  501  0.00000000000E+00  0.00000000000E+00  0.18208960336E+02  0.18208960336E+02  0.00000000000E+00 0.  1.
        1   -1    0    0  501    0  0.00000000000E+00  0.00000000000E+00 -0.10231354878E+03  0.10231354878E+03  0.00000000000E+00 0. -1.
      -24    2    1    2    0    0  0.00000000000E+00  0.00000000000E+00 -0.84104588444E+02  0.12052250912E+03  0.86325508434E+02 0.  0.
       11    1    3    3    0    0  0.35302786381E+02  0.10513977361E+02 -0.73463676382E+02  0.82181154736E+02  0.00000000000E+00 0. -1.
      -12    1    3    3    0    0 -0.35302786381E+02 -0.10513977361E+02 -0.10640912063E+02  0.38341354381E+02  0.00000000000E+00 0.  1.
</event>
<event>
 5   0  0.8936300E+00  0.8791665E+02  0.7957747E-01  0.1307578E+00
       -2   -1    0    0    0  501  0.00000000000E+00  0.00000000000E+00  0.15678845646E+02  0.15678845646E+02  0.00000000000E+00 0.  1.
        1   -1    0    0  501    0  0.00000000000E+00  0.00000000000E+00 -0.12324468435E+03  0.12324468435E+03  0.00000000000E+00 0. -1.
      -24    2    1    2    0    0  0.00000000000E+00  0.00000000000E+00 -0.10756583870E+03  0.13892352999E+03  0.87916651042E+02 0.  0.
       11    1    3    3    0    0  0.18679787475E+02  0.32795859896E+02 -0.89392305730E+02  0.97033433466E+02  0.00000000000E+00 0. -1.
      -12    1    3    3    0    0 -0.18679787475E+02 -0.32795859896E+02 -0.18173532970E+02  0.41890096527E+02  0.00000000000E+00 0.  1.
</event>
<event>
 5   0  0.8936300E+00  0.8060364E+02  0.7957747E-01  0.1325950E+00
        1   -1    0    0  501    0  0.00000000000E+00  0.00000000000E+00  0.10130326258E+02  0.10130326258E+02  0.00000000000E+00 0. -1.
       -2   -1    0    0    0  501  0.00000000000E+00  0.00000000000E+00 -0.16033410338E+03  0.16033410338E+03  0.00000000000E+00 0.  1.
      -24    2    1    2    0    0  0.00000000000E+00  0.00000000000E+00 -0.15020377712E+03  0.17046442964E+03  0.80603642039E+02 0.  0.
       11    1    3    3    0    0  0.69288559915E+01  0.26270840774E+02 -0.12149345109E+02  0.29761933857E+02  0.00000000000E+00 0. -1.
      -12    1    3    3    0    0 -0.69288559915E+01 -0.26270840774E+02 -0.13805443202E+03  0.14070249578E+03  0.00000000000E+00 0.  1.
</event>
<event>
 5   0  0.8936300E+00  0.7964882E+02  0.7957747E-01  0.1328512E+00
       -2   -1    0    0    0  501  0.00000000000E+00  0.00000000000E+00  0.24908937616E+02  0.24908937616E+02  0.00000000000E+00 0.  1.
        1   -1    0    0  501    0  0.00000000000E+00  0.00000000000E+00 -0.63671262265E+02  0.63671262265E+02  0.00000000000E+00 0. -1.
      -24    2    1    2    0    0  0.00000000000E+00  0.00000000000E+00 -0.38762324649E+02  0.88580199881E+02  0.79648816681E+02 0.  0.
       11    1    3    3    0    0  0.13129391218E+02 -0.34738276468E+02 -0.35376376516E+02  0.51289538711E+02  0.00000000000E+00 0. -1.
      -12    1    3    3    0    0 -0.13129391218E+02  0.34738276468E+02 -0.33859481322E+01  0.37290661170E+02  0.00000000000E+00 0.  1.
</event>
<event>
 5   0  0.8936300E+00  0.8045533E+02  0.7957747E-01  0.1326345E+00
        1   -1    0    0  501    0  0.00000000000E+00  0.00000000000E+00  0.59105042426E+01  0.59105042426E+01  0.00000000000E+00 0. -1.
       -2   -1    0    0    0  501  0.00000000000E+00  0.00000000000E+00 -0.27379471932E+03  0.27379471932E+03  0.00000000000E+00 0.  1.
      -24    2    1    2    0    0  0.00000000000E+00  0.00000000000E+00 -0.26788421507E+03  0.27970522356E+03  0.80455325495E+02 0.  0.
       11    1    3    3    0    0 -0.24632707076E+00 -0.36195819319E+02 -0.19496155286E+03  0.19829323011E+03  0.00000000000E+00 0. -1.
      -12    1    3    3    0    0  0.24632707076E+00  0.36195819319E+02 -0.72922662209E+02  0.81411993446E+02  0.00000000000E+00 0.  1.
</event>
<event>
 4   0  0.8936300E+00  0.2741480E+02  0.7957747E-01  0.1606210E+00
       -4   -1    0    0    0  501  0.00000000000E+00  0.00000000000E+00  0.19404902474E+02  0.19404902474E+02  0.00000000000E+00 0.  1.
        3   -1    0    0  501    0  0.00000000000E+00  0.00000000000E+00 -0.96827472348E+01  0.96827472348E+01  0.00000000000E+00 0. -1.
       11    1    1    2    0    0  0.66444203742E+01  0.92055520311E+01 -0.32889280912E+01  0.11819795188E+02  0.00000000000E+00 0. -1.
      -12    1    1    2    0    0 -0.66444203742E+01 -0.92055520311E+01  0.13011083330E+02  0.17267854520E+02  0.00000000000E+00 0.  1.
</event>
<event>
 5   0  0.8936300E+00  0.8441939E+02  0.7957747E-01  0.1316101E+00
        1   -1    0    0  501    0  0.00000000000E+00  0.00000000000E+00  0.75048297607E+01  0.75048297607E+01  0.00000000000E+00 0. -1.
       -2   -1    0    0    0  501  0.00000000000E+00  0.00000000000E+00 -0.23740154984E+03  0.23740154984E+03  0.00000000000E+00 0.  1.
      -24    2    1    2    0    0  0.00000000000E+00  0.00000000000E+00 -0.22989672008E+03  0.24490637960E+03  0.84419386789E+02 0.  0.
       11    1    3    3    0    0 -0.21681190509E+02  0.14284314174E+02 -0.18401508048E+02  0.31823437145E+02  0.00000000000E+00 0. -1.
      -12    1    3    3    0    0  0.21681190509E+02 -0.14284314174E+02 -0.21149521203E+03  0.21308294246E+03  0.00000000000E+00 0.  1.
</event>
<event>
 5   0  0.8936300E+00  0.8263353E+02  0.7957747E-01  0.1320636E+00
        1   -1    0    0  501    0  0.00000000000E+00  0.00000000000E+00  0.58436803036E+01  0.58436803036E+01  0.00000000000E+00 0. -1.
       -2   -1    0    0    0  501  0.00000000000E+00  0.00000000000E+00 -0.29212325143E+03  0.29212325143E+03  0.00000000000E+00 0.  1.
      -24    2    1    2    0    0  0.00000000000E+00  0.00000000000E+00 -0.28627957112E+03  0.29796693173E+03  0.82633525656E+02 0.  0.
       11    1    3    3    0    0 -0.26656797450E+02 -0.86191294160E+01 -0.33637168764E+02  0.43775945046E+02  0.00000000000E+00 0. -1.
      -12    1    3    3    0    0  0.26656797450E+02  0.86191294160E+01 -0.25264240236E+03  0.25419098668E+03  0.00000000000E+00 0.  1.
</event>
<event>
 5   0  0.8936300E+00  0.7937238E+02  0.7957747E-01  0.1329261E+00
        1   -1    0    0  501    0  0.00000000000E+00  0.00000000000E+00  0.73988124234E+02  0.73988124234E+02  0.00000000000E+00 0. -1.
       -2   -1    0    0    0  501  0.00000000000E+00  0.00000000000E+00 -0.21287112122E+02  0.21287112122E+02  0.00000000000E+00 0.  1.
      -24    2    1    2    0    0  0.00000000000E+00  0.00000000000E+00  0.52701012112E+02  0.95275236356E+02  0.79372375453E+02 0.  0.
       11    1    3    3    0    0  0.21110065906E+02 -0.27976786393E+02  0.40013414922E+01  0.35275291540E+02  0.00000000000E+00 0. -1.
      -12    1    3    3    0    0 -0.21110065906E+02  0.27976786393E+02  0.48699670620E+02  0.59999944816E+02  0.00000000000E+00 0.  1.
</event>
<event>
 5   0  0.8936300E+00  0.7882042E+02  0.7957747E-01  0.1330767E+00
        1   -1    0    0  501    0  0.00000000000E+00  0.00000000000E+00  0.38732126448E+02  0.38732126448E+02  0.00000000000E+00 0. -1.
       -2   -1    0    0    0  501  0.00000000000E+00  0.00000000000E+00 -0.40100169473E+02  0.40100169473E+02  0.00000000000E+00 0.  1.
      -24    2    1    2    0    0  0.00000000000E+00  0.00000000000E+00 -0.13680430255E+01  0.78832295921E+02  0.78820424627E+02 0.  0.
       11    1    3    3    0    0  0.33803131962E+02  0.18582747494E+02  0.73915118672E+01  0.39276006449E+02  0.00000000000E+00 0. -1.
      -12    1    3    3    0    0 -0.33803131962E+02 -0.18582747494E+02 -0.87595548927E+01  0.39556289472E+02  0.00000000000E+00 0.  1.
</event>
<event>
 5   0  0.8936300E+00  0.8183141E+02  0.7957747E-01  0.1322715E+00
        1   -1    0    0  501    0  0.00000000000E+00  0.00000000000E+00  0.29174140121E+02  0.29174140121E+02  0.00000000000E+00 0. -1.
       -2   -1    0    0    0  501  0.00000000000E+00  0.00000000000E+00 -0.57382841223E+02  0.57382841223E+02  0.00000000000E+00 0.  1.
      -24    2    1    2    0    0  0.00000000000E+00  0.00000000000E+00 -0.28208701102E+02  0.86556981345E+02  0.81831413294E+02 0.  0.
       11    1    3    3    0    0 -0.34184240414E+02  0.22437892615E+02 -0.12581145253E+02  0.42782081922E+02  0.00000000000E+00 0. -1.
      -12    1    3    3    0    0  0.34184240414E+02 -0.22437892615E+02 -0.15627555849E+02  0.43774899423E+02  0.00000000000E+00 0.  1.
</event>
<event>
 5   0  0.8936300E+00  0.8340068E+02  0.7957747E-01  0.1318672E+00
        1   -1    0    0  501    0  0.00000000000E+00  0.00000000000E+00  0.34232041842E+03  0.34232041842E+03  0.00000000000E+00 0. -1.
       -2   -1    0    0    0  501  0.00000000000E+00  0.00000000000E+00 -0.50797973665E+01  0.50797973665E+01  0.00000000000E+00 0.  1.
      -24    2    1    2    0    0  0.00000000000E+00  0.00000000000E+00  0.33724062106E+03  0.34740021579E+03  0.83400680094E+02 0.  0.
       11    1    3    3    0    0 -0.41692097622E+02  0.62778766477E+00  0.16636466421E+03  0.17151042714E+03  0.00000000000E+00 0. -1.
      -12    1    3    3    0    0  0.41692097622E+02 -0.62778766477E+00  0.17087595685E+03  0.17588978865E+03  0.00000000000E+00 0.  1.
</event>
<event>
 5   0  0.8936300E+00  0.6114251E+02  0.7957747E-01  0.1388006E+00
        1   -1    0    0  501    0  0.00000000000E+00  0.00000000000E+00  0.10528762439E+02  0.10528762439E+02  0.00000000000E+00 0. -1.
       -2   -1    0    0    0  501  0.00000000000E+00  0.00000000000E+00 -0.88766512015E+02  0.88766512015E+02  0.00000000000E+00 0.  1.
      -24    2    1    2    0    0  0.00000000000E+00  0.00000000000E+00 -0.78237749575E+02  0.99295274454E+02  0.61142506248E+02 0.  0.
       11    1    3    3    0    0 -0.11021482356E+02  0.10204952935E+01  0.71604093017E+01  0.13182789741E+02  0.00000000000E+00 0. -1.
      -12    1    3    3    0    0  0.11021482356E+02 -0.10204952935E+01 -0.85398158877E+02  0.86112484714E+02  0.00000000000E+00 0.  1.
</event>
<event>
 5   0  0.8936300E+00  0.7674426E+02  0.7957747E-01  0.1336560E+00
        1   -1    0    0  501    0  0.00000000000E+00  0.00000000000E+00  0.15217495212E+02  0.15217495212E+02  0.00000000000E+00 0. -1.
       -2   -1    0    0    0  501  0.00000000000E+00  0.00000000000E+00 -0.96758391751E+02  0.96758391751E+02  0.00000000000E+00 0.  1.
      -24    2    1    2    0    0  0.00000000000E+00  0.00000000000E+00 -0.81540896538E+02  0.11197588696E+03  0.76744260064E+02 0.  0.
       11    1    3    3    0    0 -0.32940778119E+02  0.11362158373E+02 -0.17323878587E+02  0.38914139786E+02  0.00000000000E+00 0. -1.
      -12    1    3    3    0    0  0.32940778119E+02 -0.11362158373E+02 -0.64217017952E+02  0.73061747177E+02  0.00000000000E+00 0.  1.
</event>
<event>
 5   0  0.8936300E+00  0.7743532E+02  0.7957747E-01  0.1334609E+00
        1   -1    0    0  501    0  0.00000000000E+00  0.00000000000E+00  0.32573654028E+02  0.32573654028E+02  0.00000000000E+00 0. -1.
       -2   -1    0    0    0  501  0.00000000000E+00  0.00000000000E+00 -0.46020539438E+02  0.46020539438E+02  0.00000000000E+00 0.  1.
      -24    2    1    2    0    0  0.00000000000E+00  0.00000000000E+00 -0.13446885410E+02  0.78594193466E+02  0.77435318295E+02 0.  0.
       11    1    3    3    0    0 -0.82126047532E+01 -0.31754061746E+02 -0.27605355774E+02  0.42869837667E+02  0.00000000000E+00 0. -1.
      -12    1    3    3    0    0  0.82126047532E+01  0.31754061746E+02  0.14158470365E+02  0.35724355799E+02  0.00000000000E+00 0.  1.
</event>
<event>
 5   0  0.8936300E+00  0.7112092E+02  0.7957747E-01  0.1353356E+00
        1   -1    0    0  501    0  0.00000000000E+00  0.00000000000E+00  0.11779812280E+02  0.11779812280E+02  0.00000000000E+00 0. -1.
       -2   -1    0    0    0  501  0.00000000000E+00  0.00000000000E+00 -0.10734859357E+03  0.10734859357E+03  0.00000000000E+00 0.  1.
      -24    2    1    2    0    0  0.00000000000E+00  0.00000000000E+00 -0.95568781291E+02  0.11912840585E+03  0.71120919027E+02 0.  0.
       11    1    3    3    0    0 -0.12197506151E+02  0.29910079485E+02 -0.22874854839E+02  0.39580942321E+02  0.00000000000E+00 0. -1.
      -12    1    3    3    0    0  0.12197506151E+02 -0.29910079485E+02 -0.72693926452E+02  0.79547463530E+02  0.00000000000E+00 0.  1.
</event>
<event>
 5   0  0.8936300E+00  0.8111626E+02  0.7957747E-01  0.1324592E+00
        1   -1    0    0  501    0  0.00000000000E+00  0.00000000000E+00  0.13035930878E+03  0.13035930878E+03  0.00000000000E+00 0. -1.
       -2   -1    0    0    0  501  0.00000000000E+00  0.00000000000E+00 -0.12618676863E+02  0.12618676863E+02  0.00000000000E+00 0.  1.
      -24    2    1    2    0    0  0.00000000000E+00  0.00000000000E+00  0.11774063192E+03  0.14297798565E+03  0.81116262085E+02 0.  0.
       11    1    3    3    0    0  0.12920210507E+02  0.31491939220E+02  0.97739729164E+02  0.10349748177E+03  0.00000000000E+00 0. -1.
      -12    1    3    3    0    0 -0.12920210507E+02 -0.31491939220E+02  0.20000902756E+02  0.39480503878E+02  0.00000000000E+00 0.  1.
</event>
<event>
 5   0  0.8936300E+00  0.8039472E+02  0.7957747E-01  0.1326507E+00
        1   -1    0    0  501    0  0.00000000000E+00  0.00000000000E+00  0.87367363405E+02  0.87367363405E+02  0.00000000000E+00 0. -1.
       -2   -1    0    0    0  501  0.00000000000E+00  0.00000000000E+00 -0.18494639762E+02  0.18494639762E+02  0.00000000000E+00 0.  1.
      -24    2    1    2    0    0  0.00000000000E+00  0.00000000000E+00  0.68872723643E+02  0.10586200317E+03  0.80394724034E+02 0.  0.
       11    1    3    3    0    0  0.56146650305E+01 -0.38666108209E+02  0.46875246802E+02  0.61023611416E+02  0.00000000000E+00 0. -1.
      -12    1    3    3    0    0 -0.56146650305E+01  0.38666108209E+02  0.21997476841E+02  0.44838391751E+02  0.00000000000E+00 0.  1.
</event>
<event>
 5   0  0.8936300E+00  0.8358343E+02  0.7957747E-01  0.1318208E+00
        1   -1    0    0  501    0  0.00000000000E+00  0.00000000000E+00  0.11064019160E+03  0.11064019160E+03  0.00000000000E+00 0. -1.
       -2   -1    0    0    0  501  0.00000000000E+00  0.00000000000E+00 -0.15785829836E+02  0.15785829836E+02  0.00000000000E+00 0.  1.
      -24    2    1    2    0    0  0.00000000000E+00  0.00000000000E+00  0.94854361762E+02  0.12642602143E+03  0.83583425094E+02 0.  0.
       11    1    3    3    0    0 -0.53300055624E+01 -0.39236745143E+02  0.67642314648E+02  0.78379932761E+02  0.00000000000E+00 0. -1.
      -12    1    3    3    0    0  0.53300055624E+01  0.39236745143E+02  0.27212047114E+02  0.48046088674E+02  0.00000000000E+00 0.  1.
</event>
<event>
 5   0  0.8936300E+00  0.7992040E+02  0.7957747E-01  0.1327779E+00
        1   -1    0    0  501    0  0.00000000000E+00  0.00000000000E+00  0.28143359739E+02  0.28143359739E+02  0.00000000000E+00 0. -1.
       -2   -1    0    0    0  501  0.00000000000E+00  0.00000000000E+00 -0.56738693933E+02  0.56738693933E+02  0.00000000000E+00 0.  1.
      -24    2    1    2    0    0  0.00000000000E+00  0.00000000000E+00 -0.28595334195E+02  0.84882053672E+02  0.79920397258E+02 0.  0.
       11    1    3    3    0    0 -0.39591063790E+02 -0.11060620885E+01 -0.19931888927E+02  0.44339101272E+02  0.00000000000E+00 0. -1.
      -12    1    3    3    0    0  0.39591063790E+02  0.11060620885E+01 -0.86634452675E+01  0.40542952400E+02  0.00000000000E+00 0.  1.
</event>
<event>
 5   0  0.8936300E+00  0.8202196E+02  0.7957747E-01  0.1322219E+00
        1   -1    0    0  501    0  0.00000000000E+00  0.00000000000E+00  0.45904821238E+02  0.45904821238E+02  0.00000000000E+00 0. -1.
       -2   -1    0    0    0  501  0.00000000000E+00  0.00000000000E+00 -0.36638859645E+02  0.36638859645E+02  0.00000000000E+00 0.  1.
      -24    2    1    2    0    0  0.00000000000E+00  0.00000000000E+00  0.92659615924E+01  0.82543680883E+02  0.82021955655E+02 0.  0.
       11    1    3    3    0    0 -0.14436302992E+02  0.17134185097E+02  0.39201337437E+02  0.45152319983E+02  0.00000000000E+00 0. -1.
      -12    1    3    3    0    0  0.14436302992E+02 -0.17134185097E+02 -0.29935375844E+02  0.37391360900E+02  0.00000000000E+00 0.  1.
</event>
<event>
 5   0  0.8936300E+00  0.8234397E+02  0.7957747E-01  0.1321383E+00
        1   -1    0    0  501    0  0.00000000000E+00  0.00000000000E+00  0.49254800521E+01  0.49254800521E+01  0.00000000000E+00 0. -1.
       -2   -1    0    0    0  501  0.00000000000E+00  0.00000000000E+00 -0.34415575613E+03  0.34415575613E+03  0.00000000000E+00 0.  1.
      -24    2    1    2    0    0  0.00000000000E+00  0.00000000000E+00 -0.33923027608E+03  0.34908123618E+03  0.82343969097E+02 0.  0.
       11    1    3    3    0    0  0.23918632999E+02  0.30394797868E+02 -0.10978419821E+03  0.11639808812E+03  0.00000000000E+00 0. -1.
      -12    1    3    3    0    0 -0.23918632999E+02 -0.30394797868E+02 -0.22944607787E+03  0.23268314806E+03  0.00000000000E+00 0.  1.
</event>
<event>
 5   0  0.8936300E+00  0.7929024E+02  0.7957747E-01  0.1329484E+00
        1   -1    0    0  501    0  0.00000000000E+00  0.00000000000E+00  0.55201073094E+01  0.55201073094E+01  0.00000000000E+00 0. -1.
       -2   -1    0    0    0  501  0.00000000000E+00  0.00000000000E+00 -0.28472912945E+03  0.28472912945E+03  0.00000000000E+00 0.  1.
      -24    2    1    2    0    0  0.00000000000E+00  0.00000000000E+00 -0.27920902214E+03  0.29024923676E+03  0.79290235178E+02 0.  0.
       11    1    3    3    0    0  0.16294430732E+01  0.22218495229E+02 -0.19560588185E+02  0.29646808009E+02  0.00000000000E+00 0. -1.
      -12    1    3    3    0    0 -0.16294430732E+01 -0.22218495229E+02 -0.25964843395E+03  0.26060242875E+03  0.00000000000E+00 0.  1.
</event>
<event>
 5   0  0.8936300E+00  0.7774663E+02  0.7957747E-01  0.1333738E+00
       -2   -1    0    0    0  501  0.00000000000E+00  0.00000000000E+00  0.32598282743E+03  0.32598282743E+03  0.00000000000E+00 0.  1.
        1   -1    0    0  501    0  0.00000000000E+00  0.00000000000E+00 -0.46356270204E+01  0.46356270204E+01  0.00000000000E+00 0. -1.
      -24    2    1    2    0    0  0.00000000000E+00  0.00000000000E+00  0.32134720041E+03  0.33061845445E+03  0.77746634731E+02 0.  0.
       11    1    3    3    0    0 -0.54218131770E+01 -0.11800822924E+02  0.48621770241E+01  0.13867092169E+02  0.00000000000E+00 0. -1.
      -12    1    3    3    0    0  0.54218131770E+01  0.11800822924E+02  0.31648502338E+03  0.31675136228E+03  0.00000000000E+00 0.  1.
</event>
<event>
 5   0  0.8936300E+00  0.8160957E+02  0.7957747E-01  0.1323295E+00
        1   -1    0    0  501    0  0.00000000000E+00  0.00000000000E+00  0.20336544722E+02  0.20336544722E+02  0.00000000000E+00 0. -1.
       -2   -1    0    0    0  501  0.00000000000E+00  0.00000000000E+00 -0.81873822005E+02  0.81873822005E+02  0.00000000000E+00 0.  1.
      -24    2    1    2    0    0  0.00000000000E+00  0.00000000000E+00 -0.61537277283E+02  0.10221036673E+03  0.81609574016E+02 0.  0.
       11    1    3    3    0    0  0.12994065210E+02  0.38604626889E+02 -0.27734834113E+02  0.49278636052E+02  0.00000000000E+00 0. -1.
      -12    1    3    3    0    0 -0.12994065210E+02 -0.38604626889E+02 -0.33802443170E+02  0.52931730675E+02  0.00000000000E+00 0.  1.
</event>
<event>
 5   0  0.8936300E+00  0.7674768E+02  0.7957747E-01  0.1336551E+00
        3   -1    0    0  501    0  0.00000000000E+00  0.00000000000E+00  0.17896447260E+02  0.17896447260E+02  0.00000000000E+00 0. -1.
       -4   -1    0    0    0  501  0.00000000000E+00  0.00000000000E+00 -0.82281783204E+02  0.82281783204E+02  0.00000000000E+00 0.  1.
      -24    2    1    2    0    0  0.00000000000E+00  0.00000000000E+00 -0.64385335944E+02  0.10017823046E+03  0.76747679927E+02 0.  0.
       11    1    3    3    0    0  0.35764094326E+02  0.11407833380E+02 -0.21804100615E+02  0.43412301356E+02  0.00000000000E+00 0. -1.
      -12    1    3    3    0    0 -0.35764094326E+02 -0.11407833380E+02 -0.42581235329E+02  0.56765929108E+02  0.00000000000E+00 0.  1.
</event>
<event>
 5   0  0.8936300E+00  0.8002298E+02  0.7957747E-01  0.1327503E+00
        1   -1    0    0  501    0  0.00000000000E+00  0.00000000000E+00  0.64243291112E+01  0.64243291112E+01  0.00000000000E+00 0. -1.
       -2   -1    0    0    0  501  0.00000000000E+00  0.00000000000E+00 -0.24919634193E+03  0.24919634193E+03  0.00000000000E+00 0.  1.
      -24    2    1    2    0    0  0.00000000000E+00  0.00000000000E+00 -0.24277201281E+03  0.25562067104E+03  0.80022979545E+02 0.  0.
       11    1    3    3    0    0 -0.13942828391E+02 -0.25620037716E+02 -0.33897768395E+02  0.44719654496E+02  0.00000000000E+00 0. -1.
      -12    1    3    3    0    0  0.13942828391E+02  0.25620037716E+02 -0.20887424442E+03  0.21090101654E+03  0.00000000000E+00 0.  1.
</event>
<event>
 4   0  0.8936300E+00  0.1847578E+03  0.7957747E-01  0.1169056E+00
        1   -1    0    0  501    0  0.00000000000E+00  0.00000000000E+00  0.40354959562E+02  0.40354959562E+02  0.00000000000E+00 0. -1.
       -2   -1    0    0    0  501  0.00000000000E+00  0.00000000000E+00 -0.21146984653E+03  0.21146984653E+03  0.00000000000E+00 0.  1.
       11    1    1    2    0    0  0.42222234032E+02 -0.65806661927E+02 -0.18498078844E+02  0.80345583087E+02  0.00000000000E+00 0. -1.
      -12    1    1    2    0    0 -0.42222234032E+02  0.65806661927E+02 -0.15261680813E+03  0.17147922301E+03  0.00000000000E+00 0.  1.
</event>
<event>
 5   0  0.8936300E+00  0.8057477E+02  0.7957747E-01  0.1326027E+00
        1   -1    0    0  501    0  0.00000000000E+00  0.00000000000E+00  0.35988637531E+02  0.35988637531E+02  0.00000000000E+00 0. -1.
       -2   -1    0    0    0  501  0.00000000000E+00  0.00000000000E+00 -0.45099611676E+02  0.45099611676E+02  0.00000000000E+00 0.  1.
      -24    2    1    2    0    0  0.00000000000E+00  0.00000000000E+00 -0.91109741448E+01  0.81088249207E+02  0.80574774648E+02 0.  0.
       11    1    3    3    0    0 -0.15977874833E+01  0.16178590438E+02  0.32540968496E+02  0.36376013307E+02  0.00000000000E+00 0. -1.
      -12    1    3    3    0    0  0.15977874833E+01 -0.16178590438E+02 -0.41651942641E+02  0.44712235900E+02  0.00000000000E+00 0.  1.
</event>
<event>
 5   0  0.8936300E+00  0.7409893E+02  0.7957747E-01  0.1344250E+00
        1   -1    0    0  501    0  0.00000000000E+00  0.00000000000E+00  0.14540953739E+02  0.14540953739E+02  0.00000000000E+00 0. -1.
       -2   -1    0    0    0  501  0.00000000000E+00  0.00000000000E+00 -0.94399773574E+02  0.94399773574E+02  0.00000000000E+00 0.  1.
      -24    2    1    2    0    0  0.00000000000E+00  0.00000000000E+00 -0.79858819835E+02  0.10894072731E+03  0.74098926860E+02 0.  0.
       11    1    3    3    0    0 -0.23305510956E+02 -0.13179552286E+01  0.23701185772E+01  0.23462764308E+02  0.00000000000E+00 0. -1.
      -12    1    3    3    0    0  0.23305510956E+02  0.13179552286E+01 -0.82228938412E+02  0.85477963004E+02  0.00000000000E+00 0.  1.
</event>
<event>
 5   0  0.8936300E+00  0.8350518E+02  0.7957747E-01  0.1318407E+00
       -2   -1    0    0    0  501  0.00000000000E+00  0.00000000000E+00  0.14066855488E+03  0.14066855488E+03  0.00000000000E+00 0.  1.
        1   -1    0    0  501    0  0.00000000000E+00  0.00000000000E+00 -0.12392809944E+02  0.12392809944E+02  0.00000000000E+00 0. -1.
      -24    2    1    2    0    0  0.00000000000E+00  0.00000000000E+00  0.12827574494E+03  0.15306136483E+03  0.83505177463E+02 0.  0.
       11    1    3    3    0    0 -0.36270963499E+02  0.18473601714E+02  0.47098087327E+02  0.62250193439E+02  0.00000000000E+00 0. -1.
      -12    1    3    3    0    0  0.36270963499E+02 -0.18473601714E+02  0.81177657614E+02  0.90811171389E+02  0.00000000000E+00 0.  1.
</event>
<event>
 5   0  0.8936300E+00  0.8152455E+02  0.7957747E-01  0.1323518E+00
        1   -1    0    0  501    0  0.00000000000E+00  0.00000000000E+00  0.27236886892E+02  0.27236886892E+02  0.00000000000E+00 0. -1.
       -2   -1    0    0    0  501  0.00000000000E+00  0.00000000000E+00 -0.61004143570E+02  0.61004143570E+02  0.00000000000E+00 0.  1.
      -24    2    1    2    0    0  0.00000000000E+00  0.00000000000E+00 -0.33767256678E+02  0.88241030462E+02  0.81524547429E+02 0.  0.
       11    1    3    3    0    0  0.18476657066E+02  0.18520169809E+02  0.16951616910E+02  0.31172758331E+02  0.00000000000E+00 0. -1.
      -12    1    3    3    0    0 -0.18476657066E+02 -0.18520169809E+02 -0.50718873588E+02  0.57068272132E+02  0.00000000000E+00 0.  1.
</event>
<event>
 5   0  0.8936300E+00  0.8394371E+02  0.7957747E-01  0.1317297E+00
        1   -1    0    0  501    0  0.00000000000E+00  0.00000000000E+00  0.11537808643E+02  0.11537808643E+02  0.00000000000E+00 0. -1.
       -2   -1    0    0    0  501  0.00000000000E+00  0.00000000000E+00 -0.15268381998E+03  0.15268381998E+03  0.00000000000E+00 0.  1.
      -24    2    1    2    0    0  0.00000000000E+00  0.00000000000E+00 -0.14114601134E+03  0.16422162863E+03  0.83943712042E+02 0.  0.
       11    1    3    3    0    0 -0.11095457295E+02 -0.22266893850E+01  0.84968556069E+01  0.14151461883E+02  0.00000000000E+00 0. -1.
      -12    1    3    3    0    0  0.11095457295E+02  0.22266893850E+01 -0.14964286695E+03  0.15007016675E+03  0.00000000000E+00 0.  1.
</event>
<event>
 5   0  0.8936300E+00  0.8150474E+02  0.7957747E-01  0.1323570E+00
        1   -1    0    0  501    0  0.00000000000E+00  0.00000000000E+00  0.16362057935E+03  0.16362057935E+03  0.00000000000E+00 0. -1.
       -2   -1    0    0    0  501  0.00000000000E+00  0.00000000000E+00 -0.10150040548E+02  0.10150040548E+02  0.00000000000E+00 0.  1.
      -24    2    1    2    0    0  0.00000000000E+00  0.00000000000E+00  0.15347053880E+03  0.17377061989E+03  0.81504736424E+02 0.  0.
       11    1    3    3    0    0 -0.27567144088E+02 -0.23535244291E+02  0.11644490274E+03  0.12195601884E+03  0.00000000000E+00 0. -1.
      -12    1    3    3    0    0  0.27567144088E+02  0.23535244291E+02  0.37025636059E+02  0.51814601056E+02  0.00000000000E+00 0.  1.
</event>
<event>
 5   0  0.8936300E+00  0.8080687E+02  0.7957747E-01  0.1325410E+00
        1   -1    0    0  501    0  0.00000000000E+00  0.00000000000E+00  0.26001848634E+01  0.26001848634E+01  0.00000000000E+00 0. -1.
       -2   -1    0    0    0  501  0.00000000000E+00  0.00000000000E+00 -0.62781603302E+03  0.62781603302E+03  0.00000000000E+00 0.  1.
      -24    2    1    2    0    0  0.00000000000E+00  0.00000000000E+00 -0.62521584816E+03  0.63041621789E+03  0.80806874611E+02 0.  0.
       11    1    3    3    0    0  0.34530729300E+02  0.15421571504E+02 -0.20166123996E+03  0.20517663569E+03  0.00000000000E+00 0. -1.
      -12    1    3    3    0    0 -0.34530729300E+02 -0.15421571504E+02 -0.42355460820E+03  0.42523958219E+03  0.00000000000E+00 0.  1.
</event>
<event>
 5   0  0.8936300E+00  0.8046012E+02  0.7957747E-01  0.1326333E+00
       -2   -1    0    0    0  501  0.00000000000E+00  0.00000000000E+00  0.13916896871E+03  0.13916896871E+03  0.00000000000E+00 0.  1.
        1   -1    0    0  501    0  0.00000000000E+00  0.00000000000E+00 -0.11629444861E+02  0.11629444861E+02  0.00000000000E+00 0. -1.
      -24    2    1    2    0    0  0.00000000000E+00  0.00000000000E+00  0.12753952385E+03  0.15079841357E+03  0.80460122990E+02 0.  0.
       11    1    3    3    0    0 -0.97344407736E+01 -0.10808665094E+02 -0.65282852781E+01  0.15943810303E+02  0.00000000000E+00 0. -1.
      -12    1    3    3    0    0  0.97344407736E+01  0.10808665094E+02  0.13406780912E+03  0.13485460327E+03  0.00000000000E+00 0.  1.
</event>
<event>
 5   0  0.8936300E+00  0.7480104E+02  0.7957747E-01  0.1342174E+00
        1   -1    0    0  501    0  0.00000000000E+00  0.00000000000E+00  0.56983018313E+02  0.56983018313E+02  0.00000000000E+00 0. -1.
       -2   -1    0    0    0  501  0.00000000000E+00  0.00000000000E+00 -0.24547641919E+02  0.24547641919E+02  0.00000000000E+00 0.  1.
      -24    2    1    2    0    0  0.00000000000E+00  0.00000000000E+00  0.32435376394E+02  0.81530660232E+02  0.74801035527E+02 0.  0.
       11    1    3    3    0    0  0.10494093550E+02 -0.14539116070E+02  0.51992637339E+02  0.54997692979E+02  0.00000000000E+00 0. -1.
      -12    1    3    3    0    0 -0.10494093550E+02  0.14539116070E+02 -0.19557260945E+02  0.26532967252E+02  0.00000000000E+00 0.  1.
</event>
<event>
 5   0  0.8936300E+00  0.8211505E+02  0.7957747E-01  0.1321977E+00
       -2   -1    0    0    0  501  0.00000000000E+00  0.00000000000E+00  0.12960058546E+02  0.12960058546E+02  0.00000000000E+00 0.  1.
        1   -1    0    0  501    0  0.00000000000E+00  0.00000000000E+00 -0.13007044150E+03  0.13007044150E+03  0.00000000000E+00 0. -1.
      -24    2    1    2    0    0  0.00000000000E+00  0.00000000000E+00 -0.11711038296E+03  0.14303050005E+03  0.82115054332E+02 0.  0.
       11    1    3    3    0    0  0.33503648815E+02 -0.22635877957E+02 -0.70975197534E+02  0.81684491305E+02  0.00000000000E+00 0. -1.
      -12    1    3    3    0    0 -0.33503648815E+02  0.22635877957E+02 -0.46135185422E+02  0.61346008743E+02  0.00000000000E+00 0.  1.
</event>
<event>
 5   0  0.8936300E+00  0.8083837E+02  0.7957747E-01  0.1325327E+00
        1   -1    0    0  501    0  0.00000000000E+00  0.00000000000E+00  0.10032149613E+02  0.10032149613E+02  0.00000000000E+00 0. -1.
       -2   -1    0    0    0  501  0.00000000000E+00  0.00000000000E+00 -0.16284749717E+03  0.16284749717E+03  0.00000000000E+00 0.  1.
      -24    2    1    2    0    0  0.00000000000E+00  0.00000000000E+00 -0.15281534755E+03  0.17287964678E+03  0.80838368506E+02 0.  0.
       11    1    3    3    0    0 -0.73842573008E+01 -0.16816369191E+02  0.59302263905E+00  0.18375777657E+02  0.00000000000E+00 0. -1.
      -12    1    3    3    0    0  0.73842573008E+01  0.16816369191E+02 -0.15340837019E+03  0.15450386912E+03  0.00000000000E+00 0.  1.
</event>
<event>
 5   0  0.8936300E+00  0.8194828E+02  0.7957747E-01  0.1322410E+00
       -2   -1    0    0    0  501  0.00000000000E+00  0.00000000000E+00  0.23044274915E+02  0.23044274915E+02  0.00000000000E+00 0.  1.
        1   -1    0    0  501    0  0.00000000000E+00  0.00000000000E+00 -0.72854544246E+02  0.72854544246E+02  0.00000000000E+00 0. -1.
      -24    2    1    2    0    0  0.00000000000E+00  0.00000000000E+00 -0.49810269331E+02  0.95898819160E+02  0.81948279942E+02 0.  0.
       11    1    3    3    0    0 -0.19739352782E+02 -0.33391799755E+02 -0.94586499170E+01  0.39926437324E+02  0.00000000000E+00 0. -1.
      -12    1    3    3    0    0  0.19739352782E+02  0.33391799755E+02 -0.40351619414E+02  0.55972381836E+02  0.00000000000E+00 0.  1.
</event>
<event>
 5   0  0.8936300E+00  0.7866852E+02  0.7957747E-01  0.1331184E+00
        1   -1    0    0  501    0  0.00000000000E+00  0.00000000000E+00  0.95975474953E+01  0.95975474953E+01  0.00000000000E+00 0. -1.
       -2   -1    0    0    0  501  0.00000000000E+00  0.00000000000E+00 -0.16120617070E+03  0.16120617070E+03  0.00000000000E+00 0.  1.
      -24    2    1    2    0    0  0.00000000000E+00  0.00000000000E+00 -0.15160862320E+03  0.17080371819E+03  0.78668516696E+02 0.  0.
       11    1    3    3    0    0 -0.21386447266E+02  0.30084338736E+01 -0.44270964332E+01  0.22046087723E+02  0.00000000000E+00 0. -1.
      -12    1    3    3    0    0  0.21386447266E+02 -0.30084338736E+01 -0.14718152677E+03  0.14875763047E+03  0.00000000000E+00 0.  1.
</event>
<event>
 5   0  0.8936300E+00  0.8011923E+02  0.7957747E-01  0.1327245E+00
        1   -1    0    0  501    0  0.00000000000E+00  0.00000000000E+00  0.47515426517E+02  0.47515426517E+02  0.00000000000E+00 0. -1.
       -2   -1    0    0    0  501  0.00000000000E+00  0.00000000000E+00 -0.33773721808E+02  0.33773721808E+02  0.00000000000E+00 0.  1.
      -24    2    1    2    0    0  0.00000000000E+00  0.00000000000E+00  0.13741704710E+02  0.81289148325E+02  0.80119231069E+02 0.  0.
       11    1    3    3    0    0  0.20890948499E+02  0.91546811212E+01  0.40283982528E+02  0.46292970999E+02  0.00000000000E+00 0. -1.
      -12    1    3    3    0    0 -0.20890948499E+02 -0.91546811212E+01 -0.26542277819E+02  0.34996177326E+02  0.00000000000E+00 0.  1.
</event>
<event>
 5   0  0.8936300E+00  0.7974057E+02  0.7957747E-01  0.1328264E+00
        1   -1    0    0  501    0  0.00000000000E+00  0.00000000000E+00  0.70289672644E+02  0.70289672644E+02  0.00000000000E+00 0. -1.
       -2   -1    0    0    0  501  0.00000000000E+00  0.00000000000E+00 -0.22615551038E+02  0.22615551038E+02  0.00000000000E+00 0.  1.
      -24    2    1    2    0    0  0.00000000000E+00  0.00000000000E+00  0.47674121605E+02  0.92905223682E+02  0.79740571333E+02 0.  0.
       11    1    3    3    0    0 -0.21647844420E+02  0.25619520652E+02  0.48951534150E+02  0.59340051416E+02  0.00000000000E+00 0. -1.
      -12    1    3    3    0    0  0.21647844420E+02 -0.25619520652E+02 -0.12774125447E+01  0.33565172266E+02  0.00000000000E+00 0.  1.
</event>
<event>
 5   0  0.8936300E+00  0.8007805E+02  0.7957747E-01  0.1327355E+00
        1   -1    0    0  501    0  0.00000000000E+00  0.00000000000E+00  0.13638944086E+02  0.13638944086E+02  0.00000000000E+00 0. -1.
       -2   -1    0    0    0  501  0.00000000000E+00  0.00000000000E+00 -0.11754016102E+03  0.11754016102E+03  0.00000000000E+00 0.  1.
      -24    2    1    2    0    0  0.00000000000E+00  0.00000000000E+00 -0.10390121693E+03  0.13117910510E+03  0.80078054022E+02 0.  0.
       11    1    3    3    0    0  0.26406397034E+02  0.18887045522E+02 -0.13564065067E+02  0.35185254781E+02  0.00000000000E+00 0. -1.
      -12    1    3    3    0    0 -0.26406397034E+02 -0.18887045522E+02 -0.90337151861E+02  0.95993850320E+02  0.00000000000E+00 0.  1.
</event>
<event>
 5   0  0.8936300E+00  0.8048701E+02  0.7957747E-01  0.1326261E+00
       -2   -1    0    0    0  501  0.00000000000E+00  0.00000000000E+00  0.29477974969E+03  0.29477974969E+03  0.00000000000E+00 0.  1.
        1   -1    0    0  501    0  0.00000000000E+00  0.00000000000E+00 -0.54940663519E+01  0.54940663519E+01  0.00000000000E+00 0. -1.
      -24    2    1    2    0    0  0.00000000000E+00  0.00000000000E+00  0.28928568333E+03  0.30027381604E+03  0.80487005261E+02 0.  0.
       11    1    3    3    0    0 -0.25302109589E+02  0.19560714289E+02  0.53509471223E+02  0.62338445631E+02  0.00000000000E+00 0. -1.
      -12    1    3    3    0    0  0.25302109589E+02 -0.19560714289E+02  0.23577621211E+03  0.23793537041E+03  0.00000000000E+00 0.  1.
</event>
<event>
 5   0  0.8936300E+00  0.8430025E+02  0.7957747E-01  0.1316400E+00
        1   -1    0    0  501    0  0.00000000000E+00  0.00000000000E+00  0.11038152800E+02  0.11038152800E+02  0.00000000000E+00 0. -1.
       -2   -1    0    0    0  501  0.00000000000E+00  0.00000000000E+00 -0.16095384457E+03  0.16095384457E+03  0.00000000000E+00 0.  1.
      -24    2    1    2    0    0  0.00000000000E+00  0.00000000000E+00 -0.14991569177E+03  0.17199199737E+03  0.84300252196E+02 0.  0.
       11    1    3    3    0    0 -0.24179843143E+02  0.27275388336E+02 -0.31773256220E+02  0.48354435517E+02  0.00000000000E+00 0. -1.
      -12    1    3    3    0    0  0.24179843143E+02 -0.27275388336E+02 -0.11814243555E+03  0.12363756185E+03  0.00000000000E+00 0.  1.
</event>
<event>
 5   0  0.8936300E+00  0.8107733E+02  0.7957747E-01  0.1324694E+00
        1   -1    0    0  501    0  0.00000000000E+00  0.00000000000E+00  0.35431095211E+02  0.35431095211E+02  0.00000000000E+00 0. -1.
       -2   -1    0    0    0  501  0.00000000000E+00  0.00000000000E+00 -0.46382510886E+02  0.46382510886E+02  0.00000000000E+00 0.  1.
      -24    2    1    2    0    0  0.00000000000E+00  0.00000000000E+00 -0.10951415675E+02  0.81813606097E+02  0.81077325050E+02 0.  0.
       11    1    3    3    0    0  0.32001240468E+02 -0.22693353628E+02  0.48305376094E+01  0.39527228387E+02  0.00000000000E+00 0. -1.
      -12    1    3    3    0    0 -0.32001240468E+02  0.22693353628E+02 -0.15781953284E+02  0.42286377710E+02  0.00000000000E+00 0.  1.
</event>
<event>
 5   0  0.8936300E+00  0.8142301E+02  0.7957747E-01  0.1323784E+00
        3   -1    0    0  501    0  0.00000000000E+00  0.00000000000E+00  0.90705360103E+02  0.90705360103E+02  0.00000000000E+00 0. -1.
       -4   -1    0    0    0  501  0.00000000000E+00  0.00000000000E+00 -0.18272644006E+02  0.18272644006E+02  0.00000000000E+00 0.  1.
      -24    2    1    2    0    0  0.00000000000E+00  0.00000000000E+00  0.72432716097E+02  0.10897800411E+03  0.81423012831E+02 0.  0.
       11    1    3    3    0    0 -0.25258595464E+02 -0.25300680130E+02  0.62283076615E+02  0.71814362718E+02  0.00000000000E+00 0. -1.
      -12    1    3    3    0    0  0.25258595464E+02  0.25300680130E+02  0.10149639481E+02  0.37163641391E+02  0.00000000000E+00 0.  1.
</event>
<event>
 5   0  0.8936300E+00  0.9574749E+02  0.7957747E-01  0.1290016E+00
       -2   -1    0    0    0  501  0.00000000000E+00  0.00000000000E+00  0.24634292597E+02  0.24634292597E+02  0.00000000000E+00 0.  1.
        1   -1    0    0  501    0  0.00000000000E+00  0.00000000000E+00 -0.93036783534E+02  0.93036783534E+02  0.00000000000E+00 0. -1.
      -24    2    1    2    0    0  0.00000000000E+00  0.00000000000E+00 -0.68402490938E+02  0.11767107613E+03  0.95747487650E+02 0.  0.
       11    1    3    3    0    0  0.29201978023E+02  0.95812756308E+01 -0.79312071131E+02  0.85058573878E+02  0.00000000000E+00 0. -1.
      -12    1    3    3    0    0 -0.29201978023E+02 -0.95812756308E+01  0.10909580193E+02  0.32612502253E+02  0.00000000000E+00 0.  1.
</event>
<event>
 5   0  0.8936300E+00  0.7931191E+02  0.7957747E-01  0.1329425E+00
        1   -1    0    0  501    0  0.00000000000E+00  0.00000000000E+00  0.33687740564E+01  0.33687740564E+01  0.00000000000E+00 0. -1.
       -2   -1    0    0    0  501  0.00000000000E+00  0.00000000000E+00 -0.46681517486E+03  0.46681517486E+03  0.00000000000E+00 0.  1.
      -24    2    1    2    0    0  0.00000000000E+00  0.00000000000E+00 -0.46344640080E+03  0.47018394892E+03  0.79311912099E+02 0.  0.
       11    1    3    3    0    0  0.15588269073E+02 -0.36004308636E+02 -0.19751821663E+03  0.20137713444E+03  0.00000000000E+00 0. -1.
      -12    1    3    3    0    0 -0.15588269073E+02  0.36004308636E+02 -0.26592818417E+03  0.26880681448E+03  0.00000000000E+00 0.  1.
</event>
<event>
 5   0  0.8936300E+00  0.8125509E+02  0.7957747E-01  0.1324226E+00
        1   -1    0    0  501    0  0.00000000000E+00  0.00000000000E+00  0.26006271092E+02  0.26006271092E+02  0.00000000000E+00 0. -1.
       -2   -1    0    0    0  501  0.00000000000E+00  0.00000000000E+00 -0.63469214999E+02  0.63469214999E+02  0.00000000000E+00 0.  1.
      -24    2    1    2    0    0  0.00000000000E+00  0.00000000000E+00 -0.37462943907E+02  0.89475486090E+02  0.81255094886E+02 0.  0.
       11    1    3    3    0    0  0.97153987028E+01 -0.31757173395E+02 -0.44501868373E+02  0.55527680688E+02  0.00000000000E+00 0. -1.
      -12    1    3    3    0    0 -0.97153987028E+01  0.31757173395E+02  0.70389244654E+01  0.33947805402E+02  0.00000000000E+00 0.  1.
</event>
<event>
 5   0  0.8936300E+00  0.7985391E+02  0.7957747E-01  0.1327958E+00
        1   -1    0    0  501    0  0.00000000000E+00  0.00000000000E+00  0.75638505253E+01  0.75638505253E+01  0.00000000000E+00 0. -1.
       -2   -1    0    0    0  501  0.00000000000E+00  0.00000000000E+00 -0.21076060437E+03  0.21076060437E+03  0.00000000000E+00 0.  1.
      -24    2    1    2    0    0  0.00000000000E+00  0.00000000000E+00 -0.20319675384E+03  0.21832445489E+03  0.79853909311E+02 0.  0.
       11    1    3    3    0    0  0.28165431055E+02  0.18742789387E+02 -0.15956910444E+03  0.16311616337E+03  0.00000000000E+00 0. -1.
      -12    1    3    3    0    0 -0.28165431055E+02 -0.18742789387E+02 -0.43627649399E+02  0.55208291520E+02  0.00000000000E+00 0.  1.
</event>
<event>
 5   0  0.8936300E+00  0.8154650E+02  0.7957747E-01  0.1323460E+00
        1   -1    0    0  501    0  0.00000000000E+00  0.00000000000E+00  0.51796123015E+01  0.51796123015E+01  0.00000000000E+00 0. -1.
       -2   -1    0    0    0  501  0.00000000000E+00  0.00000000000E+00 -0.32096185793E+03  0.32096185793E+03  0.00000000000E+00 0.  1.
      -24    2    1    2    0    0  0.00000000000E+00  0.00000000000E+00 -0.31578224563E+03  0.32614147023E+03  0.81546501769E+02 0.  0.
       11    1    3    3    0    0  0.31716086053E+02 -0.25112205701E+02 -0.13752726503E+03  0.14335369412E+03  0.00000000000E+00 0. -1.
      -12    1    3    3    0    0 -0.31716086053E+02  0.25112205701E+02 -0.17825498060E+03  0.18278777611E+03  0.00000000000E+00 0.  1.
</event>
<event>
 5   0  0.8936300E+00  0.8383615E+02  0.7957747E-01  0.1317568E+00
        1   -1    0    0  501    0  0.00000000000E+00  0.00000000000E+00  0.10903043200E+03  0.10903043200E+03  0.00000000000E+00 0. -1.
       -2   -1    0    0    0  501  0.00000000000E+00  0.00000000000E+00 -0.16115914858E+02  0.16115914858E+02  0.00000000000E+00 0.  1.
      -24    2    1    2    0    0  0.00000000000E+00  0.00000000000E+00  0.92914517143E+02  0.12514634686E+03  0.83836153514E+02 0.  0.
       11    1    3    3    0    0  0.21890969775E+02  0.17159933120E+02  0.93269817080E+02  0.97329012327E+02  0.00000000000E+00 0. -1.
      -12    1    3    3    0    0 -0.21890969775E+02 -0.17159933120E+02 -0.35529993670E+00  0.27817334531E+02  0.00000000000E+00 0.  1.
</event>
<event>
 5   0  0.8936300E+00  0.7806944E+02  0.7957747E-01  0.1332839E+00
        1   -1    0    0  501    0  0.00000000000E+00  0.00000000000E+00  0.29863647984E+02  0.29863647984E+02  0.00000000000E+00 0. -1.
       -2   -1    0    0    0  501  0.00000000000E+00  0.00000000000E+00 -0.51022208126E+02  0.51022208126E+02  0.00000000000E+00 0.  1.
      -24    2    1    2    0    0  0.00000000000E+00  0.00000000000E+00 -0.21158560143E+02  0.80885856110E+02  0.78069437371E+02 0.  0.
       11    1    3    3    0    0  0.14507752664E+02  0.26553273844E+02  0.14971240765E+02  0.33759284489E+02  0.00000000000E+00 0. -1.
      -12    1    3    3    0    0 -0.14507752664E+02 -0.26553273844E+02 -0.36129800907E+02  0.47126571621E+02  0.00000000000E+00 0.  1.
</event>
<event>
 5   0  0.8936300E+00  0.7805333E+02  0.7957747E-01  0.1332884E+00
        1   -1    0    0  501    0  0.00000000000E+00  0.00000000000E+00  0.20597719133E+03  0.20597719133E+03  0.00000000000E+00 0. -1.
       -2   -1    0    0    0  501  0.00000000000E+00  0.00000000000E+00 -0.73944139466E+01  0.73944139466E+01  0.00000000000E+00 0.  1.
      -24    2    1    2    0    0  0.00000000000E+00  0.00000000000E+00  0.19858277739E+03  0.21337160528E+03  0.78053330903E+02 0.  0.
       11    1    3    3    0    0 -0.12881512175E+02 -0.36833772029E+02  0.10106405663E+03  0.10833560661E+03  0.00000000000E+00 0. -1.
      -12    1    3    3    0    0  0.12881512175E+02  0.36833772029E+02  0.97518720758E+02  0.10503599867E+03  0.00000000000E+00 0.  1.
</event>
<event>
 5   0  0.8936300E+00  0.8032887E+02  0.7957747E-01  0.1326683E+00
        1   -1    0    0  501    0  0.00000000000E+00  0.00000000000E+00  0.46821657847E+02  0.46821657847E+02  0.00000000000E+00 0. -1.
       -2   -1    0    0    0  501  0.00000000000E+00  0.00000000000E+00 -0.34453757086E+02  0.34453757086E+02  0.00000000000E+00 0.  1.
      -24    2    1    2    0    0  0.00000000000E+00  0.00000000000E+00  0.12367900761E+02  0.81275414934E+02  0.80328874655E+02 0.  0.
       11    1    3    3    0    0  0.33639862356E+01 -0.34017050816E+02  0.27520488038E+02  0.43884546385E+02  0.00000000000E+00 0. -1.
      -12    1    3    3    0    0 -0.33639862356E+01  0.34017050816E+02 -0.15152587277E+02  0.37390868548E+02  0.00000000000E+00 0.  1.
</event>
<event>
 5   0  0.8936300E+00  0.7910406E+02  0.7957747E-01  0.1329991E+00
        1   -1    0    0  501    0  0.00000000000E+00  0.00000000000E+00  0.73260810886E+01  0.73260810886E+01  0.00000000000E+00 0. -1.
       -2   -1    0    0    0  501  0.00000000000E+00  0.00000000000E+00 -0.21353343025E+03  0.21353343025E+03  0.00000000000E+00 0.  1.
      -24    2    1    2    0    0  0.00000000000E+00  0.00000000000E+00 -0.20620734916E+03  0.22085951134E+03  0.79104063743E+02 0.  0.
       11    1    3    3    0    0 -0.22539238918E+02 -0.73965313155E+01 -0.14740248204E+02  0.27928495907E+02  0.00000000000E+00 0. -1.
      -12    1    3    3    0    0  0.22539238918E+02  0.73965313155E+01 -0.19146710096E+03  0.19293101543E+03  0.00000000000E+00 0.  1.
</event>
<event>
 5   0  0.8936300E+00  0.8047447E+02  0.7957747E-01  0.1326294E+00
        3   -1    0    0  501    0  0.00000000000E+00  0.00000000000E+00  0.14231081925E+03  0.14231081925E+03  0.00000000000E+00 0. -1.
       -4   -1    0    0    0  501  0.00000000000E+00  0.00000000000E+00 -0.11376752025E+02  0.11376752025E+02  0.00000000000E+00 0.  1.
      -24    2    1    2    0    0  0.00000000000E+00  0.00000000000E+00  0.13093406722E+03  0.15368757127E+03  0.80474465540E+02 0.  0.
       11    1    3    3    0    0  0.29985068614E+02 -0.13975268490E+02  0.10920958136E+03  0.11411023236E+03  0.00000000000E+00 0. -1.
      -12    1    3    3    0    0 -0.29985068614E+02  0.13975268490E+02  0.21724485865E+02  0.39577338911E+02  0.00000000000E+00 0.  1.
</event>
<event>
 5   0  0.8936300E+00  0.8120700E+02  0.7957747E-01  0.1324352E+00
        1   -1    0    0  501    0  0.00000000000E+00  0.00000000000E+00  0.38392915945E+02  0.38392915945E+02  0.00000000000E+00 0. -1.
       -2   -1    0    0    0  501  0.00000000000E+00  0.00000000000E+00 -0.42941361110E+02  0.42941361110E+02  0.00000000000E+00 0.  1.
      -24    2    1    2    0    0  0.00000000000E+00  0.00000000000E+00 -0.45484451643E+01  0.81334277055E+02  0.81206996439E+02 0.  0.
       11    1    3    3    0    0  0.12586544063E+02  0.10717027455E+02  0.34869862716E+02  0.38589935148E+02  0.00000000000E+00 0. -1.
      -12    1    3    3    0    0 -0.12586544063E+02 -0.10717027455E+02 -0.39418307880E+02  0.42744341907E+02  0.00000000000E+00 0.  1.
</event>
<event>
 5   0  0.8936300E+00  0.8042187E+02  0.7957747E-01  0.1326435E+00
        1   -1    0    0  501    0  0.00000000000E+00  0.00000000000E+00  0.67018927464E+02  0.67018927464E+02  0.00000000000E+00 0. -1.
       -2   -1    0    0    0  501  0.00000000000E+00  0.00000000000E+00 -0.24126307097E+02  0.24126307097E+02  0.00000000000E+00 0.  1.
      -24    2    1    2    0    0  0.00000000000E+00  0.00000000000E+00  0.42892620367E+02  0.91145234560E+02  0.80421868302E+02 0.  0.
       11    1    3    3    0    0 -0.34262057540E+02 -0.93620575123E+01  0.42811553279E+02  0.55627024025E+02  0.00000000000E+00 0. -1.
      -12    1    3    3    0    0  0.34262057540E+02  0.93620575123E+01  0.81067088384E-01  0.35518210535E+02  0.00000000000E+00 0.  1.
</event>
<event>
 5   0  0.8936300E+00  0.7606693E+02  0.7957747E-01  0.1338495E+00
        1   -1    0    0  501    0  0.00000000000E+00  0.00000000000E+00  0.67197907044E+02  0.67197907044E+02  0.00000000000E+00 0. -1.
       -2   -1    0    0    0  501  0.00000000000E+00  0.00000000000E+00 -0.21526628257E+02  0.21526628257E+02  0.00000000000E+00 0.  1.
      -24    2    1    2    0    0  0.00000000000E+00  0.00000000000E+00  0.45671278787E+02  0.88724535301E+02  0.76066927494E+02 0.  0.
       11    1    3    3    0    0  0.10798535687E+02 -0.22720543779E+02  0.56107987765E+02  0.61489330567E+02  0.00000000000E+00 0. -1.
      -12    1    3    3    0    0 -0.10798535687E+02  0.22720543779E+02 -0.10436708978E+02  0.27235204734E+02  0.00000000000E+00 0.  1.
</event>
<event>
 5   0  0.8936300E+00  0.7874516E+02  0.7957747E-01  0.1330973E+00
       -2   -1    0    0    0  501  0.00000000000E+00  0.00000000000E+00  0.19939348223E+02  0.19939348223E+02  0.00000000000E+00 0.  1.
        1   -1    0    0  501    0  0.00000000000E+00  0.00000000000E+00 -0.77745770027E+02  0.77745770027E+02  0.00000000000E+00 0. -1.
      -24    2    1    2    0    0  0.00000000000E+00  0.00000000000E+00 -0.57806421804E+02  0.97685118250E+02  0.78745158110E+02 0.  0.
       11    1    3    3    0    0 -0.29233992397E+02  0.24080888676E+02 -0.42245860440E+02  0.56738243145E+02  0.00000000000E+00 0. -1.
      -12    1    3    3    0    0  0.29233992397E+02 -0.24080888676E+02 -0.15560561364E+02  0.40946875105E+02  0.00000000000E+00 0.  1.
</event>
<event>
 5   0  0.8936300E+00  0.7986408E+02  0.7957747E-01  0.1327931E+00
        1   -1    0    0  501    0  0.00000000000E+00  0.00000000000E+00  0.12930159634E+03  0.12930159634E+03  0.00000000000E+00 0. -1.
       -2   -1    0    0    0  501  0.00000000000E+00  0.00000000000E+00 -0.12332158913E+02  0.12332158913E+02  0.00000000000E+00 0.  1.
      -24    2    1    2    0    0  0.00000000000E+00  0.00000000000E+00  0.11696943742E+03  0.14163375525E+03  0.79864080378E+02 0.  0.
       11    1    3    3    0    0  0.28405447315E+01  0.35284868893E+02  0.91256202812E+02  0.97881485578E+02  0.00000000000E+00 0. -1.
      -12    1    3    3    0    0 -0.28405447315E+01 -0.35284868893E+02  0.25713234611E+02  0.43752269670E+02  0.00000000000E+00 0.  1.
</event>
<event>
 5   0  0.8936300E+00  0.8045279E+02  0.7957747E-01  0.1326352E+00
       -2   -1    0    0    0  501  0.00000000000E+00  0.00000000000E+00  0.18270351968E+02  0.18270351968E+02  0.00000000000E+00 0.  1.
        1   -1    0    0  501    0  0.00000000000E+00  0.00000000000E+00 -0.88567690350E+02  0.88567690350E+02  0.00000000000E+00 0. -1.
      -24    2    1    2    0    0  0.00000000000E+00  0.00000000000E+00 -0.70297338381E+02  0.10683804232E+03  0.80452790522E+02 0.  0.
       11    1    3    3    0    0 -0.36686800831E+02  0.53171500692E+01 -0.55890759459E+02  0.67066910120E+02  0.00000000000E+00 0. -1.
      -12    1    3    3    0    0  0.36686800831E+02 -0.53171500692E+01 -0.14406578922E+02  0.39771132198E+02  0.00000000000E+00 0.  1.
</event>
<event>
 5   0  0.8936300E+00  0.8134190E+02  0.7957747E-01  0.1323997E+00
        1   -1    0    0  501    0  0.00000000000E+00  0.00000000000E+00  0.32596185892E+02  0.32596185892E+02  0.00000000000E+00 0. -1.
       -2   -1    0    0    0  501  0.00000000000E+00  0.00000000000E+00 -0.50746002242E+02  0.50746002242E+02  0.00000000000E+00 0.  1.
      -24    2    1    2    0    0  0.00000000000E+00  0.00000000000E+00 -0.18149816350E+02  0.83342188134E+02  0.81341898733E+02 0.  0.
       11    1    3    3    0    0  0.21307160436E+02  0.31476597561E+02  0.57500029418E+01  0.38442604149E+02  0.00000000000E+00 0. -1.
      -12    1    3    3    0    0 -0.21307160436E+02 -0.31476597561E+02 -0.23899819292E+02  0.44899583985E+02  0.00000000000E+00 0.  1.
</event>
<event>
 5   0  0.8936300E+00  0.8807203E+02  0.7957747E-01  0.1307209E+00
        1   -1    0    0  501    0  0.00000000000E+00  0.00000000000E+00  0.19094238645E+02  0.19094238645E+02  0.00000000000E+00 0. -1.
       -2   -1    0    0    0  501  0.00000000000E+00  0.00000000000E+00 -0.10155788581E+03  0.10155788581E+03  0.00000000000E+00 0.  1.
      -24    2    1    2    0    0  0.00000000000E+00  0.00000000000E+00 -0.82463647168E+02  0.12065212446E+03  0.88072027523E+02 0.  0.
       11    1    3    3    0    0 -0.29168988791E+02  0.28674299798E+02 -0.18883758681E+02  0.45051545122E+02  0.00000000000E+00 0. -1.
      -12    1    3    3    0    0  0.29168988791E+02 -0.28674299798E+02 -0.63579888487E+02  0.75600579336E+02  0.00000000000E+00 0.  1.
</event>
<event>
 5   0  0.8936300E+00  0.7653920E+02  0.7957747E-01  0.1337144E+00
        1   -1    0    0  501    0  0.00000000000E+00  0.00000000000E+00  0.62406830473E+01  0.62406830473E+01  0.00000000000E+00 0. -1.
       -2   -1    0    0    0  501  0.00000000000E+00  0.00000000000E+00 -0.23467977891E+03  0.23467977891E+03  0.00000000000E+00 0.  1.
      -24    2    1    2    0    0  0.00000000000E+00  0.00000000000E+00 -0.22843909586E+03  0.24092046196E+03  0.76539195652E+02 0.  0.
       11    1    3    3    0    0  0.29838296294E+02 -0.14569056996E+02 -0.54332549957E+02  0.63675798639E+02  0.00000000000E+00 0. -1.
      -12    1    3    3    0    0 -0.29838296294E+02  0.14569056996E+02 -0.17410654591E+03  0.17724466332E+03  0.00000000000E+00 0.  1.
</event>
<event>
 5   0  0.8936300E+00  0.7877832E+02  0.7957747E-01  0.1330882E+00
        1   -1    0    0  501    0  0.00000000000E+00  0.00000000000E+00  0.14998145774E+03  0.14998145774E+03  0.00000000000E+00 0. -1.
       -2   -1    0    0    0  501  0.00000000000E+00  0.00000000000E+00 -0.10344651243E+02  0.10344651243E+02  0.00000000000E+00 0.  1.
      -24    2    1    2    0    0  0.00000000000E+00  0.00000000000E+00  0.13963680650E+03  0.16032610899E+03  0.78778318675E+02 0.  0.
       11    1    3    3    0    0 -0.15725193999E+02  0.29348376848E+02  0.11264848237E+03  0.11746612078E+03  0.00000000000E+00 0. -1.
      -12    1    3    3    0    0  0.15725193999E+02 -0.29348376848E+02  0.26988324126E+02  0.42859988207E+02  0.00000000000E+00 0.  1.
</event>
<event>
 5   0  0.8936300E+00  0.8128099E+02  0.7957747E-01  0.1324157E+00
        1   -1    0    0  501    0  0.00000000000E+00  0.00000000000E+00  0.85092088810E+01  0.85092088810E+01  0.00000000000E+00 0. -1.
       -2   -1    0    0    0  501  0.00000000000E+00  0.00000000000E+00 -0.19410145773E+03  0.19410145773E+03  0.00000000000E+00 0.  1.
      -24    2    1    2    0    0  0.00000000000E+00  0.00000000000E+00 -0.18559224885E+03  0.20261066661E+03  0.81280990347E+02 0.  0.
       11    1    3    3    0    0  0.26706224447E+02  0.15303013982E+02 -0.26645299765E+02  0.40710891181E+02  0.00000000000E+00 0. -1.
      -12    1    3    3    0    0 -0.26706224447E+02 -0.15303013982E+02 -0.15894694908E+03  0.16189977543E+03  0.00000000000E+00 0.  1.
</event>
<event>
 5   0  0.8936300E+00  0.8236881E+02  0.7957747E-01  0.1321319E+00
        3   -1    0    0  501    0  0.00000000000E+00  0.00000000000E+00  0.11202469743E+03  0.11202469743E+03  0.00000000000E+00 0. -1.
       -4   -1    0    0    0  501  0.00000000000E+00  0.00000000000E+00 -0.15140902865E+02  0.15140902865E+02  0.00000000000E+00 0.  1.
      -24    2    1    2    0    0  0.00000000000E+00  0.00000000000E+00  0.96883794562E+02  0.12716560029E+03  0.82368806285E+02 0.  0.
       11    1    3    3    0    0 -0.40836343665E+02  0.43974634273E+01  0.53127294793E+02  0.67152469058E+02  0.00000000000E+00 0. -1.
      -12    1    3    3    0    0  0.40836343665E+02 -0.43974634273E+01  0.43756499769E+02  0.60013131234E+02  0.00000000000E+00 0.  1.
</event>
<event>
 5   0  0.8936300E+00  0.8092470E+02  0.7957747E-01  0.1325098E+00
        1   -1    0    0  501    0  0.00000000000E+00  0.00000000000E+00  0.53954329031E+01  0.53954329031E+01  0.00000000000E+00 0. -1.
       -2   -1    0    0    0  501  0.00000000000E+00  0.00000000000E+00 -0.30344212621E+03  0.30344212621E+03  0.00000000000E+00 0.  1.
      -24    2    1    2    0    0  0.00000000000E+00  0.00000000000E+00 -0.29804669330E+03  0.30883755911E+03  0.80924696649E+02 0.  0.
       11    1    3    3    0    0 -0.38147634744E+02  0.13434272440E+02 -0.14438067400E+03  0.14993832311E+03  0.00000000000E+00 0. -1.
      -12    1    3    3    0    0  0.38147634744E+02 -0.13434272440E+02 -0.15366601930E+03  0.15889923600E+03  0.00000000000E+00 0.  1.
</event>
<event>
 5   0  0.8936300E+00  0.8075719E+02  0.7957747E-01  0.1325542E+00
        1   -1    0    0  501    0  0.00000000000E+00  0.00000000000E+00  0.76583168945E+02  0.76583168945E+02  0.00000000000E+00 0. -1.
       -2   -1    0    0    0  501  0.00000000000E+00  0.00000000000E+00 -0.21289674988E+02  0.21289674988E+02  0.00000000000E+00 0.  1.
      -24    2    1    2    0    0  0.00000000000E+00  0.00000000000E+00  0.55293493957E+02  0.97872843933E+02  0.80757186093E+02 0.  0.
       11    1    3    3    0    0  0.33413238513E+02  0.14469451214E+01  0.55066937211E+02  0.64427523093E+02  0.00000000000E+00 0. -1.
      -12    1    3    3    0    0 -0.33413238513E+02 -0.14469451214E+01  0.22655674562E+00  0.33445320840E+02  0.00000000000E+00 0.  1.
</event>
<event>
 5   0  0.8936300E+00  0.8007863E+02  0.7957747E-01  0.1327354E+00
        3   -1    0    0  501    0  0.00000000000E+00  0.00000000000E+00  0.17339360345E+02  0.17339360345E+02  0.00000000000E+00 0. -1.
       -4   -1    0    0    0  501  0.00000000000E+00  0.00000000000E+00 -0.92457083529E+02  0.92457083529E+02  0.00000000000E+00 0.  1.
      -24    2    1    2    0    0  0.00000000000E+00  0.00000000000E+00 -0.75117723185E+02  0.10979644387E+03  0.80078628553E+02 0.  0.
       11    1    3    3    0    0  0.34962611921E+02  0.19500676772E+02 -0.38514771504E+02  0.55552211935E+02  0.00000000000E+00 0. -1.
      -12    1    3    3    0    0 -0.34962611921E+02 -0.19500676772E+02 -0.36602951681E+02  0.54244231939E+02  0.00000000000E+00 0.  1.
</event>
<event>
 5   0  0.8936300E+00  0.8059479E+02  0.7957747E-01  0.1325974E+00
        1   -1    0    0  501    0  0.00000000000E+00  0.00000000000E+00  0.33135998627E+02  0.33135998627E+02  0.00000000000E+00 0. -1.
       -2   -1    0    0    0  501  0.00000000000E+00  0.00000000000E+00 -0.49006526700E+02  0.49006526700E+02  0.00000000000E+00 0.  1.
      -24    2    1    2    0    0  0.00000000000E+00  0.00000000000E+00 -0.15870528073E+02  0.82142525327E+02  0.80594793913E+02 0.  0.
       11    1    3    3    0    0 -0.18203939777E+02  0.17120713756E+02  0.24284765951E+02  0.34846120590E+02  0.00000000000E+00 0. -1.
      -12    1    3    3    0    0  0.18203939777E+02 -0.17120713756E+02 -0.40155294024E+02  0.47296404737E+02  0.00000000000E+00 0.  1.
</event>
<event>
 5   0  0.8936300E+00  0.7703037E+02  0.7957747E-01  0.1335750E+00
        1   -1    0    0  501    0  0.00000000000E+00  0.00000000000E+00  0.40839410761E+02  0.40839410761E+02  0.00000000000E+00 0. -1.
       -2   -1    0    0    0  501  0.00000000000E+00  0.00000000000E+00 -0.36323234629E+02  0.36323234629E+02  0.00000000000E+00 0.  1.
      -24    2    1    2    0    0  0.00000000000E+00  0.00000000000E+00  0.45161761324E+01  0.77162645389E+02  0.77030370612E+02 0.  0.
       11    1    3    3    0    0  0.78838465176E+01 -0.37331306683E+02  0.75243015829E+01  0.38889543696E+02  0.00000000000E+00 0. -1.
      -12    1    3    3    0    0 -0.78838465176E+01  0.37331306683E+02 -0.30081254505E+01  0.38273101694E+02  0.00000000000E+00 0.  1.
</event>
<event>
 5   0  0.8936300E+00  0.7311153E+02  0.7957747E-01  0.1347215E+00
        1   -1    0    0  501    0  0.00000000000E+00  0.00000000000E+00  0.17778313127E+03  0.17778313127E+03  0.00000000000E+00 0. -1.
       -2   -1    0    0    0  501  0.00000000000E+00  0.00000000000E+00 -0.75165956310E+01  0.75165956310E+01  0.00000000000E+00 0.  1.
      -24    2    1    2    0    0  0.00000000000E+00  0.00000000000E+00  0.17026653564E+03  0.18529972690E+03  0.73111528715E+02 0.  0.
       11    1    3    3    0    0  0.12728917702E+02  0.34255612015E+02  0.87472151508E+02  0.94798995721E+02  0.00000000000E+00 0. -1.
      -12    1    3    3    0    0 -0.12728917702E+02 -0.34255612015E+02  0.82794384129E+02  0.90500731178E+02  0.00000000000E+00 0.  1.
</event>
<event>
 5   0  0.8936300E+00  0.8256581E+02  0.7957747E-01  0.1320810E+00
        1   -1    0    0  501    0  0.00000000000E+00  0.00000000000E+00  0.12766757487E+03  0.12766757487E+03  0.00000000000E+00 0. -1.
       -2   -1    0    0    0  501  0.00000000000E+00  0.00000000000E+00 -0.13349342969E+02  0.13349342969E+02  0.00000000000E+00 0.  1.
      -24    2    1    2    0    0  0.00000000000E+00  0.00000000000E+00  0.11431823190E+03  0.14101691783E+03  0.82565809945E+02 0.  0.
       11    1    3    3    0    0  0.40931195222E+02  0.24715903247E+01  0.49002639310E+02  0.63896245277E+02  0.00000000000E+00 0. -1.
      -12    1    3    3    0    0 -0.40931195222E+02 -0.24715903247E+01  0.65315592585E+02  0.77120672558E+02  0.00000000000E+00 0.  1.
</event>
<event>
 5   0  0.8936300E+00  0.8070205E+02  0.7957747E-01  0.1325688E+00
        1   -1    0    0  501    0  0.00000000000E+00  0.00000000000E+00  0.26373286329E+02  0.26373286329E+02  0.00000000000E+00 0. -1.
       -2   -1    0    0    0  501  0.00000000000E+00  0.00000000000E+00 -0.61736917318E+02  0.61736917318E+02  0.00000000000E+00 0.  1.
      -24    2    1    2    0    0  0.00000000000E+00  0.00000000000E+00 -0.35363630989E+02  0.88110203647E+02  0.80702054435E+02 0.  0.
       11    1    3    3    0    0 -0.27031827140E+02 -0.34203188810E+01  0.14812418172E+02  0.31013319589E+02  0.00000000000E+00 0. -1.
      -12    1    3    3    0    0  0.27031827140E+02  0.34203188810E+01 -0.50176049161E+02  0.57096884059E+02  0.00000000000E+00 0.  1.
</event>
<event>
 5   0  0.8936300E+00  0.7943425E+02  0.7957747E-01  0.1329093E+00
       -2   -1    0    0    0  501  0.00000000000E+00  0.00000000000E+00  0.15441253646E+02  0.15441253646E+02  0.00000000000E+00 0.  1.
        1   -1    0    0  501    0  0.00000000000E+00  0.00000000000E+00 -0.10215815526E+03  0.10215815526E+03  0.00000000000E+00 0. -1.
      -24    2    1    2    0    0  0.00000000000E+00  0.00000000000E+00 -0.86716901614E+02  0.11759940890E+03  0.79434249221E+02 0.  0.
       11    1    3    3    0    0 -0.14664000404E+02  0.31949805367E+02 -0.70722064319E+02  0.78977423055E+02  0.00000000000E+00 0. -1.
      -12    1    3    3    0    0  0.14664000404E+02 -0.31949805367E+02 -0.15994837294E+02  0.38621985849E+02  0.00000000000E+00 0.  1.
</event>
<event>
 5   0  0.8936300E+00  0.8077597E+02  0.7957747E-01  0.1325492E+00
        1   -1    0    0  501    0  0.00000000000E+00  0.00000000000E+00  0.62782408025E+02  0.62782408025E+02  0.00000000000E+00 0. -1.
       -2   -1    0    0    0  501  0.00000000000E+00  0.00000000000E+00 -0.25981632352E+02  0.25981632352E+02  0.00000000000E+00 0.  1.
      -24    2    1    2    0    0  0.00000000000E+00  0.00000000000E+00  0.36800775673E+02  0.88764040377E+02  0.80775972751E+02 0.  0.
       11    1    3    3    0    0  0.39910220349E+02  0.58540241371E+01  0.20623887600E+02  0.45303863264E+02  0.00000000000E+00 0. -1.
      -12    1    3    3    0    0 -0.39910220349E+02 -0.58540241371E+01  0.16176888073E+02  0.43460177113E+02  0.00000000000E+00 0.  1.
</event>
<event>
 5   0  0.8936300E+00  0.7898078E+02  0.7957747E-01  0.1330328E+00
        1   -1    0    0  501    0  0.00000000000E+00  0.00000000000E+00  0.10691517314E+03  0.10691517314E+03  0.00000000000E+00 0. -1.
       -2   -1    0    0    0  501  0.00000000000E+00  0.00000000000E+00 -0.14586244891E+02  0.14586244891E+02  0.00000000000E+00 0.  1.
      -24    2    1    2    0    0  0.00000000000E+00  0.00000000000E+00  0.92328928244E+02  0.12150141803E+03  0.78980779889E+02 0.  0.
       11    1    3    3    0    0  0.28890060179E+02  0.99110547046E+01  0.84673641673E+02  0.90013833252E+02  0.00000000000E+00 0. -1.
      -12    1    3    3    0    0 -0.28890060179E+02 -0.99110547046E+01  0.76552865716E+01  0.31487584775E+02  0.00000000000E+00 0.  1.
</event>
<event>
 5   0  0.8936300E+00  0.7727966E+02  0.7957747E-01  0.1335047E+00
        1   -1    0    0  501    0  0.00000000000E+00  0.00000000000E+00  0.45681593145E+01  0.45681593145E+01  0.00000000000E+00 0. -1.
       -2   -1    0    0    0  501  0.00000000000E+00  0.00000000000E+00 -0.32683546826E+03  0.32683546826E+03  0.00000000000E+00 0.  1.
      -24    2    1    2    0    0  0.00000000000E+00  0.00000000000E+00 -0.32226730894E+03  0.33140362757E+03  0.77279660678E+02 0.  0.
       11    1    3    3    0    0  0.33283072958E+02 -0.90604412161E+01 -0.86464072325E+02  0.93090764008E+02  0.00000000000E+00 0. -1.
      -12    1    3    3    0    0 -0.33283072958E+02  0.90604412161E+01 -0.23580323662E+03  0.23831286356E+03  0.00000000000E+00 0.  1.
</event>
<event>
 5   0  0.8936300E+00  0.8037944E+02  0.7957747E-01  0.1326548E+00
       -2   -1    0    0    0  501  0.00000000000E+00  0.00000000000E+00  0.10432808634E+02  0.10432808634E+02  0.00000000000E+00 0.  1.
        1   -1    0    0  501    0  0.00000000000E+00  0.00000000000E+00 -0.15482059668E+03  0.15482059668E+03  0.00000000000E+00 0. -1.
      -24    2    1    2    0    0  0.00000000000E+00  0.00000000000E+00 -0.14438778804E+03  0.16525340531E+03  0.80379441592E+02 0.  0.
       11    1    3    3    0    0  0.25304385997E+02  0.17578767815E+02 -0.12524644022E+03  0.12898060248E+03  0.00000000000E+00 0. -1.
      -12    1    3    3    0    0 -0.25304385997E+02 -0.17578767815E+02 -0.19141347821E+02  0.36272802828E+02  0.00000000000E+00 0.  1.
</event>
<event>
 5   0  0.8936300E+00  0.7969849E+02  0.7957747E-01  0.1328377E+00
        1   -1    0    0  501    0  0.00000000000E+00  0.00000000000E+00  0.13157960431E+02  0.13157960431E+02  0.00000000000E+00 0. -1.
       -2   -1    0    0    0  501  0.00000000000E+00  0.00000000000E+00 -0.12068453094E+03  0.12068453094E+03  0.00000000000E+00 0.  1.
      -24    2    1    2    0    0  0.00000000000E+00  0.00000000000E+00 -0.10752657051E+03  0.13384249137E+03  0.79698488889E+02 0.  0.
       11    1    3    3    0    0 -0.14477825205E+02 -0.31837169957E+02 -0.21690161553E+02  0.41154294086E+02  0.00000000000E+00 0. -1.
      -12    1    3    3    0    0  0.14477825205E+02  0.31837169957E+02 -0.85836408958E+02  0.92688197288E+02  0.00000000000E+00 0.  1.
</event>
<event>
 5   0  0.8936300E+00  0.7656510E+02  0.7957747E-01  0.1337070E+00
        1   -1    0    0  501    0  0.00000000000E+00  0.00000000000E+00  0.11319413680E+03  0.11319413680E+03  0.00000000000E+00 0. -1.
       -2   -1    0    0    0  501  0.00000000000E+00  0.00000000000E+00 -0.12947256734E+02  0.12947256734E+02  0.00000000000E+00 0.  1.
      -24    2    1    2    0    0  0.00000000000E+00  0.00000000000E+00  0.10024688007E+03  0.12614139354E+03  0.76565097793E+02 0.  0.
       11    1    3    3    0    0 -0.28374595548E+02 -0.85314621253E+01  0.90061426443E+02  0.94810147408E+02  0.00000000000E+00 0. -1.
      -12    1    3    3    0    0  0.28374595548E+02  0.85314621253E+01  0.10185453627E+02  0.31331246131E+02  0.00000000000E+00 0.  1.
</event>
<event>
 5   0  0.8936300E+00  0.8142838E+02  0.7957747E-01  0.1323770E+00
        1   -1    0    0  501    0  0.00000000000E+00  0.00000000000E+00  0.11175377521E+02  0.11175377521E+02  0.00000000000E+00 0. -1.
       -2   -1    0    0    0  501  0.00000000000E+00  0.00000000000E+00 -0.14833012613E+03  0.14833012613E+03  0.00000000000E+00 0.  1.
      -24    2    1    2    0    0  0.00000000000E+00  0.00000000000E+00 -0.13715474861E+03  0.15950550365E+03  0.81428377297E+02 0.  0.
       11    1    3    3    0    0 -0.38108450210E+01  0.34949137572E+02 -0.10880196192E+03  0.11434085741E+03  0.00000000000E+00 0. -1.
      -12    1    3    3    0    0  0.38108450210E+01 -0.34949137572E+02 -0.28352786694E+02  0.45164646241E+02  0.00000000000E+00 0.  1.
</event>
<event>
 5   0  0.8936300E+00  0.8180717E+02  0.7957747E-01  0.1322778E+00
        1   -1    0    0  501    0  0.00000000000E+00  0.00000000000E+00  0.19357111338E+02  0.19357111338E+02  0.00000000000E+00 0. -1.
       -2   -1    0    0    0  501  0.00000000000E+00  0.00000000000E+00 -0.86433518338E+02  0.86433518338E+02  0.00000000000E+00 0.  1.
      -24    2    1    2    0    0  0.00000000000E+00  0.00000000000E+00 -0.67076407000E+02  0.10579062968E+03  0.81807169314E+02 0.  0.
       11    1    3    3    0    0 -0.26094050941E+02  0.45406647496E+01  0.67702823515E+01  0.27337773392E+02  0.00000000000E+00 0. -1.
      -12    1    3    3    0    0  0.26094050941E+02 -0.45406647496E+01 -0.73846689352E+02  0.78452856284E+02  0.00000000000E+00 0.  1.
</event>
<event>
 5   0  0.8936300E+00  0.8105040E+02  0.7957747E-01  0.1324765E+00
        1   -1    0    0  501    0  0.00000000000E+00  0.00000000000E+00  0.11344353179E+03  0.11344353179E+03  0.00000000000E+00 0. -1.
       -2   -1    0    0    0  501  0.00000000000E+00  0.00000000000E+00 -0.14476734914E+02  0.14476734914E+02  0.00000000000E+00 0.  1.
      -24    2    1    2    0    0  0.00000000000E+00  0.00000000000E+00  0.98966796873E+02  0.12792026670E+03  0.81050402526E+02 0.  0.
       11    1    3    3    0    0  0.21796040529E+02 -0.24628450010E+02  0.86854467137E+02  0.92872635337E+02  0.00000000000E+00 0. -1.
      -12    1    3    3    0    0 -0.21796040529E+02  0.24628450010E+02  0.12112329736E+02  0.35047631365E+02  0.00000000000E+00 0.  1.
</event>
<event>
 5   0  0.8936300E+00  0.9929870E+02  0.7957747E-01  0.1282663E+00
        1   -1    0    0  501    0  0.00000000000E+00  0.00000000000E+00  0.23414287089E+02  0.23414287089E+02  0.00000000000E+00 0. -1.
       -2   -1    0    0    0  501  0.00000000000E+00  0.00000000000E+00 -0.10528006995E+03  0.10528006995E+03  0.00000000000E+00 0.  1.
      -24    2    1    2    0    0  0.00000000000E+00  0.00000000000E+00 -0.81865782860E+02  0.12869435704E+03  0.99298696518E+02 0.  0.
       11    1    3    3    0    0  0.19264243549E+02  0.46329550762E+01  0.18068382059E+02  0.26814954457E+02  0.00000000000E+00 0. -1.
      -12    1    3    3    0    0 -0.19264243549E+02 -0.46329550762E+01 -0.99934164920E+02  0.10187940258E+03  0.00000000000E+00 0.  1.
</event>
<event>
 5   0  0.8936300E+00  0.8063141E+02  0.7957747E-01  0.1325876E+00
        1   -1    0    0  501    0  0.00000000000E+00  0.00000000000E+00  0.46776988952E+01  0.46776988952E+01  0.00000000000E+00 0. -1.
       -2   -1    0    0    0  501  0.00000000000E+00  0.00000000000E+00 -0.34746911078E+03  0.34746911078E+03  0.00000000000E+00 0.  1.
      -24    2    1    2    0    0  0.00000000000E+00  0.00000000000E+00 -0.34279141188E+03  0.35214680968E+03  0.80631405187E+02 0.  0.
       11    1    3    3    0    0  0.57424159037E+01  0.27994659704E+02 -0.47199661612E+02  0.55176846309E+02  0.00000000000E+00 0. -1.
      -12    1    3    3    0    0 -0.57424159037E+01 -0.27994659704E+02 -0.29559175027E+03  0.29696996337E+03  0.00000000000E+00 0.  1.
</event>
<event>
 5   0  0.8936300E+00  0.8160112E+02  0.7957747E-01  0.1323317E+00
        1   -1    0    0  501    0  0.00000000000E+00  0.00000000000E+00  0.95196932124E+02  0.95196932124E+02  0.00000000000E+00 0. -1.
       -2   -1    0    0    0  501  0.00000000000E+00  0.00000000000E+00 -0.17486757368E+02  0.17486757368E+02  0.00000000000E+00 0.  1.
      -24    2    1    2    0    0  0.00000000000E+00  0.00000000000E+00  0.77710174756E+02  0.11268368949E+03  0.81601118969E+02 0.  0.
       11    1    3    3    0    0  0.34291356956E+02 -0.11615738645E+01  0.83673505145E+01  0.35316553772E+02  0.00000000000E+00 0. -1.
      -12    1    3    3    0    0 -0.34291356956E+02  0.11615738645E+01  0.69342824241E+02  0.77367135720E+02  0.00000000000E+00 0.  1.
</event>
<event>
 5   0  0.8936300E+00  0.8056524E+02  0.7957747E-01  0.1326052E+00
        1   -1    0    0  501    0  0.00000000000E+00  0.00000000000E+00  0.24333118593E+03  0.24333118593E+03  0.00000000000E+00 0. -1.
       -2   -1    0    0    0  501  0.00000000000E+00  0.00000000000E+00 -0.66686456409E+01  0.66686456409E+01  0.00000000000E+00 0.  1.
      -24    2    1    2    0    0  0.00000000000E+00  0.00000000000E+00  0.23666254029E+03  0.24999983157E+03  0.80565239461E+02 0.  0.
       11    1    3    3    0    0 -0.73284464657E+01 -0.39496495851E+02  0.10901680783E+03  0.11618237259E+03  0.00000000000E+00 0. -1.
      -12    1    3    3    0    0  0.73284464657E+01  0.39496495851E+02  0.12764573246E+03  0.13381745898E+03  0.00000000000E+00 0.  1.
</event>
<event>
 5   0  0.8936300E+00  0.8112997E+02  0.7957747E-01  0.1324555E+00
       -2   -1    0    0    0  501  0.00000000000E+00  0.00000000000E+00  0.10656756971E+03  0.10656756971E+03  0.00000000000E+00 0.  1.
        1   -1    0    0  501    0  0.00000000000E+00  0.00000000000E+00 -0.15441077674E+02  0.15441077674E+02  0.00000000000E+00 0. -1.
      -24    2    1    2    0    0  0.00000000000E+00  0.00000000000E+00  0.91126492032E+02  0.12200864738E+03  0.81129972793E+02 0.  0.
       11    1    3    3    0    0  0.10604385881E+02  0.31405863784E+02  0.10399231404E+02  0.34740830355E+02  0.00000000000E+00 0. -1.
      -12    1    3    3    0    0 -0.10604385881E+02 -0.31405863784E+02  0.80727260627E+02  0.87267817025E+02  0.00000000000E+00 0.  1.
</event>
<event>
 5   0  0.8936300E+00  0.8094188E+02  0.7957747E-01  0.1325052E+00
        1   -1    0    0  501    0  0.00000000000E+00  0.00000000000E+00  0.82816224033E+01  0.82816224033E+01  0.00000000000E+00 0. -1.
       -2   -1    0    0    0  501  0.00000000000E+00  0.00000000000E+00 -0.19777491016E+03  0.19777491016E+03  0.00000000000E+00 0.  1.
      -24    2    1    2    0    0  0.00000000000E+00  0.00000000000E+00 -0.18949328776E+03  0.20605653256E+03  0.80941883516E+02 0.  0.
       11    1    3    3    0    0 -0.88651407632E+01  0.11108629858E+02  0.17197173794E+01  0.14316068103E+02  0.00000000000E+00 0. -1.
      -12    1    3    3    0    0  0.88651407632E+01 -0.11108629858E+02 -0.19121300513E+03  0.19174046446E+03  0.00000000000E+00 0.  1.
</event>
<event>
 5   0  0.8936300E+00  0.7985985E+02  0.7957747E-01  0.1327942E+00
        1   -1    0    0  501    0  0.00000000000E+00  0.00000000000E+00  0.51988945852E+01  0.51988945852E+01  0.00000000000E+00 0. -1.
       -2   -1    0    0    0  501  0.00000000000E+00  0.00000000000E+00 -0.30668035747E+03  0.30668035747E+03  0.00000000000E+00 0.  1.
      -24    2    1    2    0    0  0.00000000000E+00  0.00000000000E+00 -0.30148146289E+03  0.31187925206E+03  0.79859848481E+02 0.  0.
       11    1    3    3    0    0  0.29610392746E+02  0.26755448019E+02 -0.14554576940E+03  0.15091785960E+03  0.00000000000E+00 0. -1.
      -12    1    3    3    0    0 -0.29610392746E+02 -0.26755448019E+02 -0.15593569349E+03  0.16096139246E+03  0.00000000000E+00 0.  1.
</event>
<event>
 5   0  0.8936300E+00  0.8226245E+02  0.7957747E-01  0.1321594E+00
        1   -1    0    0  501    0  0.00000000000E+00  0.00000000000E+00  0.14477079086E+03  0.14477079086E+03  0.00000000000E+00 0. -1.
       -2   -1    0    0    0  501  0.00000000000E+00  0.00000000000E+00 -0.11685905287E+02  0.11685905287E+02  0.00000000000E+00 0.  1.
      -24    2    1    2    0    0  0.00000000000E+00  0.00000000000E+00  0.13308488558E+03  0.15645669615E+03  0.82262451955E+02 0.  0.
       11    1    3    3    0    0 -0.31543428469E+02  0.22551517798E+02  0.92635450265E+02  0.10042353051E+03  0.00000000000E+00 0. -1.
      -12    1    3    3    0    0  0.31543428469E+02 -0.22551517798E+02  0.40449435311E+02  0.56033165639E+02  0.00000000000E+00 0.  1.
</event>
<event>
 5   0  0.8936300E+00  0.7342347E+02  0.7957747E-01  0.1346272E+00
        1   -1    0    0  501    0  0.00000000000E+00  0.00000000000E+00  0.34171050428E+01  0.34171050428E+01  0.00000000000E+00 0. -1.
       -2   -1    0    0    0  501  0.00000000000E+00  0.00000000000E+00 -0.39441326969E+03  0.39441326969E+03  0.00000000000E+00 0.  1.
      -24    2    1    2    0    0  0.00000000000E+00  0.00000000000E+00 -0.39099616465E+03  0.39783037473E+03  0.73423472346E+02 0.  0.
       11    1    3    3    0    0 -0.14180864789E+02  0.10819960964E+02 -0.21640466232E+02  0.28044219728E+02  0.00000000000E+00 0. -1.
      -12    1    3    3    0    0  0.14180864789E+02 -0.10819960964E+02 -0.36935569842E+03  0.36978615501E+03  0.00000000000E+00 0.  1.
</event>
<event>
 5   0  0.8936300E+00  0.8541182E+02  0.7957747E-01  0.1313636E+00
        1   -1    0    0  501    0  0.00000000000E+00  0.00000000000E+00  0.25098021365E+02  0.25098021365E+02  0.00000000000E+00 0. -1.
       -2   -1    0    0    0  501  0.00000000000E+00  0.00000000000E+00 -0.72666870625E+02  0.72666870625E+02  0.00000000000E+00 0.  1.
      -24    2    1    2    0    0  0.00000000000E+00  0.00000000000E+00 -0.47568849260E+02  0.97764891990E+02  0.85411818186E+02 0.  0.
       11    1    3    3    0    0 -0.21696984082E+02 -0.50671771836E+01  0.17917797884E+02  0.28591657592E+02  0.00000000000E+00 0. -1.
      -12    1    3    3    0    0  0.21696984082E+02  0.50671771836E+01 -0.65486647144E+02  0.69173234398E+02  0.00000000000E+00 0.  1.
</event>
<event>
 5   0  0.8936300E+00  0.8001484E+02  0.7957747E-01  0.1327525E+00
        1   -1    0    0  501    0  0.00000000000E+00  0.00000000000E+00  0.37967439904E+01  0.37967439904E+01  0.00000000000E+00 0. -1.
       -2   -1    0    0    0  501  0.00000000000E+00  0.00000000000E+00 -0.42157003487E+03  0.42157003487E+03  0.00000000000E+00 0.  1.
      -24    2    1    2    0    0  0.00000000000E+00  0.00000000000E+00 -0.41777329088E+03  0.42536677886E+03  0.80014836034E+02 0.  0.
       11    1    3    3    0    0  0.19938632337E+02  0.20388969888E+02 -0.59719682729E+02  0.66179299314E+02  0.00000000000E+00 0. -1.
      -12    1    3    3    0    0 -0.19938632337E+02 -0.20388969888E+02 -0.35805360815E+03  0.35918747954E+03  0.00000000000E+00 0.  1.
</event>
<event>
 5   0  0.8936300E+00  0.7898935E+02  0.7957747E-01  0.1330304E+00
       -2   -1    0    0    0  501  0.00000000000E+00  0.00000000000E+00  0.57287421178E+02  0.57287421178E+02  0.00000000000E+00 0.  1.
        1   -1    0    0  501    0  0.00000000000E+00  0.00000000000E+00 -0.27228130956E+02  0.27228130956E+02  0.00000000000E+00 0. -1.
      -24    2    1    2    0    0  0.00000000000E+00  0.00000000000E+00  0.30059290222E+02  0.84515552135E+02  0.78989351333E+02 0.  0.
       11    1    3    3    0    0 -0.37700550103E+02  0.11698206053E+02  0.16403994961E+02  0.42746585286E+02  0.00000000000E+00 0. -1.
      -12    1    3    3    0    0  0.37700550103E+02 -0.11698206053E+02  0.13655295262E+02  0.41768966849E+02  0.00000000000E+00 0.  1.
</event>
<event>
 5   0  0.8936300E+00  0.8284083E+02  0.7957747E-01  0.1320103E+00
        1   -1    0    0  501    0  0.00000000000E+00  0.00000000000E+00  0.15504243970E+02  0.15504243970E+02  0.00000000000E+00 0. -1.
       -2   -1    0    0    0  501  0.00000000000E+00  0.00000000000E+00 -0.11065684558E+03  0.11065684558E+03  0.00000000000E+00 0.  1.
      -24    2    1    2    0    0  0.00000000000E+00  0.00000000000E+00 -0.95152601612E+02  0.12616108955E+03  0.82840828845E+02 0.  0.
       11    1    3    3    0    0 -0.13430783764E+02  0.18526236613E+02  0.50044783729E+01  0.23423325967E+02  0.00000000000E+00 0. -1.
      -12    1    3    3    0    0  0.13430783764E+02 -0.18526236613E+02 -0.10015707999E+03  0.10273776359E+03  0.00000000000E+00 0.  1.
</event>
<event>
 5   0  0.8936300E+00  0.7418363E+02  0.7957747E-01  0.1343998E+00
        1   -1    0    0  501    0  0.00000000000E+00  0.00000000000E+00  0.75516607441E+01  0.75516607441E+01  0.00000000000E+00 0. -1.
       -2   -1    0    0    0  501  0.00000000000E+00  0.00000000000E+00 -0.18218544910E+03  0.18218544910E+03  0.00000000000E+00 0.  1.
      -24    2    1    2    0    0  0.00000000000E+00  0.00000000000E+00 -0.17463378836E+03  0.18973710985E+03  0.74183629033E+02 0.  0.
       11    1    3    3    0    0  0.20492710878E+02 -0.24688688697E+02 -0.39719509559E+02  0.51059984218E+02  0.00000000000E+00 0. -1.
      -12    1    3    3    0    0 -0.20492710878E+02  0.24688688697E+02 -0.13491427880E+03  0.13867712563E+03  0.00000000000E+00 0.  1.
</event>
<event>
 5   0  0.8936300E+00  0.8160490E+02  0.7957747E-01  0.1323307E+00
        1   -1    0    0  501    0  0.00000000000E+00  0.00000000000E+00  0.11771384190E+03  0.11771384190E+03  0.00000000000E+00 0. -1.
       -2   -1    0    0    0  501  0.00000000000E+00  0.00000000000E+00 -0.14143111876E+02  0.14143111876E+02  0.00000000000E+00 0.  1.
      -24    2    1    2    0    0  0.00000000000E+00  0.00000000000E+00  0.10357073002E+03  0.13185695377E+03  0.81604902678E+02 0.  0.
       11    1    3    3    0    0  0.78841631217E+01 -0.37836095075E+02  0.72921441742E+02  0.82530399153E+02  0.00000000000E+00 0. -1.
      -12    1    3    3    0    0 -0.78841631217E+01  0.37836095075E+02  0.30649288278E+02  0.49326554619E+02  0.00000000000E+00 0.  1.
</event>
<event>
 5   0  0.8936300E+00  0.8378650E+02  0.7957747E-01  0.1317694E+00
        1   -1    0    0  501    0  0.00000000000E+00  0.00000000000E+00  0.60876706138E+02  0.60876706138E+02  0.00000000000E+00 0. -1.
       -2   -1    0    0    0  501  0.00000000000E+00  0.00000000000E+00 -0.28829492170E+02  0.28829492170E+02  0.00000000000E+00 0.  1.
      -24    2    1    2    0    0  0.00000000000E+00  0.00000000000E+00  0.32047213968E+02  0.89706198309E+02  0.83786503041E+02 0.  0.
       11    1    3    3    0    0 -0.38206024581E+02 -0.17185499870E+02  0.15966923625E+02  0.44832849230E+02  0.00000000000E+00 0. -1.
      -12    1    3    3    0    0  0.38206024581E+02  0.17185499870E+02  0.16080290344E+02  0.44873349079E+02  0.00000000000E+00 0.  1.
</event>
<event>
 5   0  0.8936300E+00  0.7824104E+02  0.7957747E-01  0.1332363E+00
        1   -1    0    0  501    0  0.00000000000E+00  0.00000000000E+00  0.83816751592E+02  0.83816751592E+02  0.00000000000E+00 0. -1.
       -2   -1    0    0    0  501  0.00000000000E+00  0.00000000000E+00 -0.18259061880E+02  0.18259061880E+02  0.00000000000E+00 0.  1.
      -24    2    1    2    0    0  0.00000000000E+00  0.00000000000E+00  0.65557689712E+02  0.10207581347E+03  0.78241044316E+02 0.  0.
       11    1    3    3    0    0 -0.29123236742E+02 -0.22616494290E+02  0.49826480067E+02  0.61986666696E+02  0.00000000000E+00 0. -1.
      -12    1    3    3    0    0  0.29123236742E+02  0.22616494290E+02  0.15731209645E+02  0.40089146776E+02  0.00000000000E+00 0.  1.
</event>
<event>
 5   0  0.8936300E+00  0.8127550E+02  0.7957747E-01  0.1324172E+00
        1   -1    0    0  501    0  0.00000000000E+00  0.00000000000E+00  0.74839686849E+01  0.74839686849E+01  0.00000000000E+00 0. -1.
       -2   -1    0    0    0  501  0.00000000000E+00  0.00000000000E+00 -0.22066191150E+03  0.22066191150E+03  0.00000000000E+00 0.  1.
      -24    2    1    2    0    0  0.00000000000E+00  0.00000000000E+00 -0.21317794282E+03  0.22814588019E+03  0.81275502721E+02 0.  0.
       11    1    3    3    0    0  0.22749912186E+02 -0.30672467734E+02 -0.67585058664E+02  0.77627952027E+02  0.00000000000E+00 0. -1.
      -12    1    3    3    0    0 -0.22749912186E+02  0.30672467734E+02 -0.14559288415E+03  0.15051792816E+03  0.00000000000E+00 0.  1.
</event>
<event>
 5   0  0.8936300E+00  0.8173838E+02  0.7957747E-01  0.1322958E+00
        1   -1    0    0  501    0  0.00000000000E+00  0.00000000000E+00  0.45216964822E+02  0.45216964822E+02  0.00000000000E+00 0. -1.
       -2   -1    0    0    0  501  0.00000000000E+00  0.00000000000E+00 -0.36939466651E+02  0.36939466651E+02  0.00000000000E+00 0.  1.
      -24    2    1    2    0    0  0.00000000000E+00  0.00000000000E+00  0.82774981706E+01  0.82156431473E+02  0.81738376889E+02 0.  0.
       11    1    3    3    0    0  0.37844665752E+02  0.15407920964E+02  0.33173731834E+01  0.40995459738E+02  0.00000000000E+00 0. -1.
      -12    1    3    3    0    0 -0.37844665752E+02 -0.15407920964E+02  0.49601249872E+01  0.41160971735E+02  0.00000000000E+00 0.  1.
</event>
<event>
 5   0  0.8936300E+00  0.8136534E+02  0.7957747E-01  0.1323936E+00
        1   -1    0    0  501    0  0.00000000000E+00  0.00000000000E+00  0.13796290878E+02  0.13796290878E+02  0.00000000000E+00 0. -1.
       -2   -1    0    0    0  501  0.00000000000E+00  0.00000000000E+00 -0.11996556159E+03  0.11996556159E+03  0.00000000000E+00 0.  1.
      -24    2    1    2    0    0  0.00000000000E+00  0.00000000000E+00 -0.10616927071E+03  0.13376185247E+03  0.81365343557E+02 0.  0.
       11    1    3    3    0    0  0.34588676823E+02  0.17949925300E+02 -0.33877413748E+02  0.51635797126E+02  0.00000000000E+00 0. -1.
      -12    1    3    3    0    0 -0.34588676823E+02 -0.17949925300E+02 -0.72291856964E+02  0.82126055341E+02  0.00000000000E+00 0.  1.
</event>
<event>
 5   0  0.8936300E+00  0.8094792E+02  0.7957747E-01  0.1325036E+00
        3   -1    0    0  501    0  0.00000000000E+00  0.00000000000E+00  0.66924759785E+02  0.66924759785E+02  0.00000000000E+00 0. -1.
       -4   -1    0    0    0  501  0.00000000000E+00  0.00000000000E+00 -0.24477359121E+02  0.24477359121E+02  0.00000000000E+00 0.  1.
      -24    2    1    2    0    0  0.00000000000E+00  0.00000000000E+00  0.42447400664E+02  0.91402118906E+02  0.80947918549E+02 0.  0.
       11    1    3    3    0    0  0.12687152094E+01 -0.32108768507E+02  0.49009871779E+02  0.58605035492E+02  0.00000000000E+00 0. -1.
      -12    1    3    3    0    0 -0.12687152094E+01  0.32108768507E+02 -0.65624711145E+01  0.32797083414E+02  0.00000000000E+00 0.  1.
</event>
<event>
 5   0  0.8936300E+00  0.8228560E+02  0.7957747E-01  0.1321534E+00
        1   -1    0    0  501    0  0.00000000000E+00  0.00000000000E+00  0.90558744043E+01  0.90558744043E+01  0.00000000000E+00 0. -1.
       -2   -1    0    0    0  501  0.00000000000E+00  0.00000000000E+00 -0.18692063753E+03  0.18692063753E+03  0.00000000000E+00 0.  1.
      -24    2    1    2    0    0  0.00000000000E+00  0.00000000000E+00 -0.17786476312E+03  0.19597651193E+03  0.82285595751E+02 0.  0.
       11    1    3    3    0    0  0.19375863140E+02 -0.13206994462E+02 -0.84166542736E+01  0.24913627682E+02  0.00000000000E+00 0. -1.
      -12    1    3    3    0    0 -0.19375863140E+02  0.13206994462E+02 -0.16944810885E+03  0.17106288425E+03  0.00000000000E+00 0.  1.
</event>
<event>
 5   0  0.8936300E+00  0.6717453E+02  0.7957747E-01  0.1366235E+00
       -2   -1    0    0    0  501  0.00000000000E+00  0.00000000000E+00  0.89982653799E+02  0.89982653799E+02  0.00000000000E+00 0.  1.
        1   -1    0    0  501    0  0.00000000000E+00  0.00000000000E+00 -0.12536907992E+02  0.12536907992E+02  0.00000000000E+00 0. -1.
      -24    2    1    2    0    0  0.00000000000E+00  0.00000000000E+00  0.77445745807E+02  0.10251956179E+03  0.67174526468E+02 0.  0.
       11    1    3    3    0    0  0.61411185233E+01  0.32574794598E+02  0.46980223541E+02  0.57497582417E+02  0.00000000000E+00 0. -1.
      -12    1    3    3    0    0 -0.61411185233E+01 -0.32574794598E+02  0.30465522266E+02  0.45021979374E+02  0.00000000000E+00 0.  1.
</event>
<event>
 5   0  0.8936300E+00  0.8146470E+02  0.7957747E-01  0.1323675E+00
        1   -1    0    0  501    0  0.00000000000E+00  0.00000000000E+00  0.19235437485E+02  0.19235437485E+02  0.00000000000E+00 0. -1.
       -2   -1    0    0    0  501  0.00000000000E+00  0.00000000000E+00 -0.86253534080E+02  0.86253534080E+02  0.00000000000E+00 0.  1.
      -24    2    1    2    0    0  0.00000000000E+00  0.00000000000E+00 -0.67018096595E+02  0.10548897156E+03  0.81464703097E+02 0.  0.
       11    1    3    3    0    0 -0.15133699669E+02  0.17192280859E+02  0.10106753776E+02  0.25034972712E+02  0.00000000000E+00 0. -1.
      -12    1    3    3    0    0  0.15133699669E+02 -0.17192280859E+02 -0.77124850370E+02  0.80453998853E+02  0.00000000000E+00 0.  1.
</event>
<event>
 5   0  0.8936300E+00  0.7916725E+02  0.7957747E-01  0.1329819E+00
        1   -1    0    0  501    0  0.00000000000E+00  0.00000000000E+00  0.63542051918E+01  0.63542051918E+01  0.00000000000E+00 0. -1.
       -2   -1    0    0    0  501  0.00000000000E+00  0.00000000000E+00 -0.24658684854E+03  0.24658684854E+03  0.00000000000E+00 0.  1.
      -24    2    1    2    0    0  0.00000000000E+00  0.00000000000E+00 -0.24023264335E+03  0.25294105373E+03  0.79167251644E+02 0.  0.
       11    1    3    3    0    0 -0.19158067312E+02  0.13725133016E+02 -0.18503964606E+02  0.29963436478E+02  0.00000000000E+00 0. -1.
      -12    1    3    3    0    0  0.19158067312E+02 -0.13725133016E+02 -0.22172867874E+03  0.22297761725E+03  0.00000000000E+00 0.  1.
</event>
<event>
 5   0  0.8936300E+00  0.8041981E+02  0.7957747E-01  0.1326440E+00
       -2   -1    0    0    0  501  0.00000000000E+00  0.00000000000E+00  0.38797485939E+02  0.38797485939E+02  0.00000000000E+00 0.  1.
        1   -1    0    0  501    0  0.00000000000E+00  0.00000000000E+00 -0.41673741039E+02  0.41673741039E+02  0.00000000000E+00 0. -1.
      -24    2    1    2    0    0  0.00000000000E+00  0.00000000000E+00 -0.28762550995E+01  0.80471226978E+02  0.80419808058E+02 0.  0.
       11    1    3    3    0    0 -0.31607692987E+02 -0.15009062236E+02 -0.21262866510E+02  0.40944202244E+02  0.00000000000E+00 0. -1.
      -12    1    3    3    0    0  0.31607692987E+02  0.15009062236E+02  0.18386611411E+02  0.39527024734E+02  0.00000000000E+00 0.  1.
</event>
<event>
 5   0  0.8936300E+00  0.8035271E+02  0.7957747E-01  0.1326619E+00
        1   -1    0    0  501    0  0.00000000000E+00  0.00000000000E+00  0.11537174029E+02  0.11537174029E+02  0.00000000000E+00 0. -1.
       -2   -1    0    0    0  501  0.00000000000E+00  0.00000000000E+00 -0.13990771735E+03  0.13990771735E+03  0.00000000000E+00 0.  1.
      -24    2    1    2    0    0  0.00000000000E+00  0.00000000000E+00 -0.12837054332E+03  0.15144489137E+03  0.80352714527E+02 0.  0.
       11    1    3    3    0    0 -0.37810352479E+02  0.64254806146E+01 -0.86741748342E+02  0.94842187138E+02  0.00000000000E+00 0. -1.
      -12    1    3    3    0    0  0.37810352479E+02 -0.64254806146E+01 -0.41628794976E+02  0.56602704236E+02  0.00000000000E+00 0.  1.
</event>
<event>
 5   0  0.8936300E+00  0.8129639E+02  0.7957747E-01  0.1324117E+00
        1   -1    0    0  501    0  0.00000000000E+00  0.00000000000E+00  0.96486936829E+01  0.96486936829E+01  0.00000000000E+00 0. -1.
       -2   -1    0    0    0  501  0.00000000000E+00  0.00000000000E+00 -0.17124348240E+03  0.17124348240E+03  0.00000000000E+00 0.  1.
      -24    2    1    2    0    0  0.00000000000E+00  0.00000000000E+00 -0.16159478872E+03  0.18089217608E+03  0.81296393693E+02 0.  0.
       11    1    3    3    0    0 -0.13090229949E+02  0.36242968825E+02 -0.52011083568E+02  0.64730670654E+02  0.00000000000E+00 0. -1.
      -12    1    3    3    0    0  0.13090229949E+02 -0.36242968825E+02 -0.10958370515E+03  0.11616150543E+03  0.00000000000E+00 0.  1.
</event>
<event>
 5   0  0.8936300E+00  0.8008368E+02  0.7957747E-01  0.1327340E+00
        3   -1    0    0  501    0  0.00000000000E+00  0.00000000000E+00  0.43147018478E+02  0.43147018478E+02  0.00000000000E+00 0. -1.
       -4   -1    0    0    0  501  0.00000000000E+00  0.00000000000E+00 -0.37160128611E+02  0.37160128611E+02  0.00000000000E+00 0.  1.
      -24    2    1    2    0    0  0.00000000000E+00  0.00000000000E+00  0.59868898668E+01  0.80307147090E+02  0.80083675137E+02 0.  0.
       11    1    3    3    0    0  0.95698984333E+01 -0.90934482251E+01  0.40902042106E+02  0.42979655712E+02  0.00000000000E+00 0. -1.
      -12    1    3    3    0    0 -0.95698984333E+01  0.90934482251E+01 -0.34915152239E+02  0.37327491378E+02  0.00000000000E+00 0.  1.
</event>
<event>
 5   0  0.8936300E+00  0.8139570E+02  0.7957747E-01  0.1323856E+00
        1   -1    0    0  501    0  0.00000000000E+00  0.00000000000E+00  0.80267968910E+01  0.80267968910E+01  0.00000000000E+00 0. -1.
       -2   -1    0    0    0  501  0.00000000000E+00  0.00000000000E+00 -0.20634816367E+03  0.20634816367E+03  0.00000000000E+00 0.  1.
      -24    2    1    2    0    0  0.00000000000E+00  0.00000000000E+00 -0.19832136678E+03  0.21437496056E+03  0.81395695184E+02 0.  0.
       11    1    3    3    0    0 -0.34708865205E+02  0.10161008461E+02 -0.50003287313E+02  0.61711264441E+02  0.00000000000E+00 0. -1.
      -12    1    3    3    0    0  0.34708865205E+02 -0.10161008461E+02 -0.14831807946E+03  0.15266369612E+03  0.00000000000E+00 0.  1.
</event>
<event>
 5   0  0.8936300E+00  0.7417553E+02  0.7957747E-01  0.1344022E+00
        1   -1    0    0  501    0  0.00000000000E+00  0.00000000000E+00  0.76164320475E+02  0.76164320475E+02  0.00000000000E+00 0. -1.
       -2   -1    0    0    0  501  0.00000000000E+00  0.00000000000E+00 -0.18059670059E+02  0.18059670059E+02  0.00000000000E+00 0.  1.
      -24    2    1    2    0    0  0.00000000000E+00  0.00000000000E+00  0.58104650416E+02  0.94223990534E+02  0.74175534998E+02 0.  0.
       11    1    3    3    0    0  0.15760616654E+01 -0.36925394613E+02  0.32974553982E+02  0.49530697027E+02  0.00000000000E+00 0. -1.
      -12    1    3    3    0    0 -0.15760616654E+01  0.36925394613E+02  0.25130096434E+02  0.44693293507E+02  0.00000000000E+00 0.  1.
</event>
<event>
 5   0  0.8936300E+00  0.7635901E+02  0.7957747E-01  0.1337658E+00
        1   -1    0    0  501    0  0.00000000000E+00  0.00000000000E+00  0.53116712308E+01  0.53116712308E+01  0.00000000000E+00 0. -1.
       -2   -1    0    0    0  501  0.00000000000E+00  0.00000000000E+00 -0.27442861476E+03  0.27442861476E+03  0.00000000000E+00 0.  1.
      -24    2    1    2    0    0  0.00000000000E+00  0.00000000000E+00 -0.26911694353E+03  0.27974028599E+03  0.76359009368E+02 0.  0.
       11    1    3    3    0    0 -0.34723696563E+02 -0.11074070905E+02 -0.92900182753E+02  0.99793858052E+02  0.00000000000E+00 0. -1.
      -12    1    3    3    0    0  0.34723696563E+02  0.11074070905E+02 -0.17621676078E+03  0.17994642794E+03  0.00000000000E+00 0.  1.
</event>
<event>
 5   0  0.8936300E+00  0.7988693E+02  0.7957747E-01  0.1327869E+00
        1   -1    0    0  501    0  0.00000000000E+00  0.00000000000E+00  0.22004568148E+02  0.22004568148E+02  0.00000000000E+00 0. -1.
       -2   -1    0    0    0  501  0.00000000000E+00  0.00000000000E+00 -0.72506778667E+02  0.72506778667E+02  0.00000000000E+00 0.  1.
      -24    2    1    2    0    0  0.00000000000E+00  0.00000000000E+00 -0.50502210520E+02  0.94511346815E+02  0.79886928902E+02 0.  0.
       11    1    3    3    0    0 -0.35420276498E+02  0.18349173745E+02 -0.27673409029E+02  0.48550033281E+02  0.00000000000E+00 0. -1.
      -12    1    3    3    0    0  0.35420276498E+02 -0.18349173745E+02 -0.22828801491E+02  0.45961313534E+02  0.00000000000E+00 0.  1.
</event>
<event>
 4   0  0.8936300E+00  0.1190377E+03  0.7957747E-01  0.1247270E+00
        1   -1    0    0  501    0  0.00000000000E+00  0.00000000000E+00  0.16956320490E+02  0.16956320490E+02  0.00000000000E+00 0. -1.
       -2   -1    0    0    0  501  0.00000000000E+00  0.00000000000E+00 -0.20891866926E+03  0.20891866926E+03  0.00000000000E+00 0.  1.
       11    1    1    2    0    0  0.42943544765E+02  0.90811049668E+01 -0.19705172469E+02  0.48113494224E+02  0.00000000000E+00 0. -1.
      -12    1    1    2    0    0 -0.42943544765E+02 -0.90811049668E+01 -0.17225717630E+03  0.17776149553E+03  0.00000000000E+00 0.  1.
</event>
<event>
 5   0  0.8936300E+00  0.7938544E+02  0.7957747E-01  0.1329225E+00
        1   -1    0    0  501    0  0.00000000000E+00  0.00000000000E+00  0.24210903419E+02  0.24210903419E+02  0.00000000000E+00 0. -1.
       -2   -1    0    0    0  501  0.00000000000E+00  0.00000000000E+00 -0.65074486360E+02  0.65074486360E+02  0.00000000000E+00 0.  1.
      -24    2    1    2    0    0  0.00000000000E+00  0.00000000000E+00 -0.40863582941E+02  0.89285389780E+02  0.79385442100E+02 0.  0.
       11    1    3    3    0    0 -0.61170859971E+01  0.12965180451E+02  0.21197537647E+02  0.25590041960E+02  0.00000000000E+00 0. -1.
      -12    1    3    3    0    0  0.61170859971E+01 -0.12965180451E+02 -0.62061120588E+02  0.63695347820E+02  0.00000000000E+00 0.  1.
</event>
<event>
 5   0  0.8936300E+00  0.7737279E+02  0.7957747E-01  0.1334785E+00
        1   -1    0    0  501    0  0.00000000000E+00  0.00000000000E+00  0.16855945099E+02  0.16855945099E+02  0.00000000000E+00 0. -1.
       -2   -1    0    0    0  501  0.00000000000E+00  0.00000000000E+00 -0.88789862886E+02  0.88789862886E+02  0.00000000000E+00 0.  1.
      -24    2    1    2    0    0  0.00000000000E+00  0.00000000000E+00 -0.71933917787E+02  0.10564580799E+03  0.77372787313E+02 0.  0.
       11    1    3    3    0    0 -0.32770682786E+01 -0.20342272851E+02  0.87404614338E+01  0.22381753893E+02  0.00000000000E+00 0. -1.
      -12    1    3    3    0    0  0.32770682786E+01  0.20342272851E+02 -0.80674379221E+02  0.83264054093E+02  0.00000000000E+00 0.  1.
</event>
<event>
 5   0  0.8936300E+00  0.7803964E+02  0.7957747E-01  0.1332922E+00
        1   -1    0    0  501    0  0.00000000000E+00  0.00000000000E+00  0.88462756885E+01  0.88462756885E+01  0.00000000000E+00 0. -1.
       -2   -1    0    0    0  501  0.00000000000E+00  0.00000000000E+00 -0.17211154635E+03  0.17211154635E+03  0.00000000000E+00 0.  1.
      -24    2    1    2    0    0  0.00000000000E+00  0.00000000000E+00 -0.16326527067E+03  0.18095782204E+03  0.78039635781E+02 0.  0.
       11    1    3    3    0    0 -0.12033124114E+02 -0.18350328978E+02 -0.68172817553E+01  0.22978380710E+02  0.00000000000E+00 0. -1.
      -12    1    3    3    0    0  0.12033124114E+02  0.18350328978E+02 -0.15644798891E+03  0.15797944133E+03  0.00000000000E+00 0.  1.
</event>
<event>
 5   0  0.8936300E+00  0.7994486E+02  0.7957747E-01  0.1327713E+00
        1   -1    0    0  501    0  0.00000000000E+00  0.00000000000E+00  0.35637447700E+02  0.35637447700E+02  0.00000000000E+00 0. -1.
       -2   -1    0    0    0  501  0.00000000000E+00  0.00000000000E+00 -0.44834721478E+02  0.44834721478E+02  0.00000000000E+00 0.  1.
      -24    2    1    2    0    0  0.00000000000E+00  0.00000000000E+00 -0.91972737776E+01  0.80472169178E+02  0.79944857040E+02 0.  0.
       11    1    3    3    0    0 -0.17369245109E+02  0.23706252531E+01  0.31561625617E+02  0.36103278955E+02  0.00000000000E+00 0. -1.
      -12    1    3    3    0    0  0.17369245109E+02 -0.23706252531E+01 -0.40758899394E+02  0.44368890222E+02  0.00000000000E+00 0.  1.
</event>
<event>
 5   0  0.8936300E+00  0.8017475E+02  0.7957747E-01  0.1327096E+00
        1   -1    0    0  501    0  0.00000000000E+00  0.00000000000E+00  0.38945480533E+02  0.38945480533E+02  0.00000000000E+00 0. -1.
       -2   -1    0    0    0  501  0.00000000000E+00  0.00000000000E+00 -0.41262749785E+02  0.41262749785E+02  0.00000000000E+00 0.  1.
      -24    2    1    2    0    0  0.00000000000E+00  0.00000000000E+00 -0.23172692520E+01  0.80208230319E+02  0.80174749604E+02 0.  0.
       11    1    3    3    0    0  0.38489628884E+02 -0.65380495190E+01  0.79446155554E+01  0.39841116192E+02  0.00000000000E+00 0. -1.
      -12    1    3    3    0    0 -0.38489628884E+02  0.65380495190E+01 -0.10261884807E+02  0.40367114127E+02  0.00000000000E+00 0.  1.
</event>
<event>
 5   0  0.8936300E+00  0.9272805E+02  0.7957747E-01  0.1296556E+00
        1   -1    0    0  501    0  0.00000000000E+00  0.00000000000E+00  0.54756820748E+02  0.54756820748E+02  0.00000000000E+00 0. -1.
       -2   -1    0    0    0  501  0.00000000000E+00  0.00000000000E+00 -0.39257622660E+02  0.39257622660E+02  0.00000000000E+00 0.  1.
      -24    2    1    2    0    0  0.00000000000E+00  0.00000000000E+00  0.15499198087E+02  0.94014443408E+02  0.92728045531E+02 0.  0.
       11    1    3    3    0    0  0.32794518598E+02  0.32772604533E+02  0.74313188206E+01  0.46954750104E+02  0.00000000000E+00 0. -1.
      -12    1    3    3    0    0 -0.32794518598E+02 -0.32772604533E+02  0.80678792666E+01  0.47059693304E+02  0.00000000000E+00 0.  1.
</event>
<event>
 5   0  0.8936300E+00  0.8168702E+02  0.7957747E-01  0.1323092E+00
        1   -1    0    0  501    0  0.00000000000E+00  0.00000000000E+00  0.59178619877E+02  0.59178619877E+02  0.00000000000E+00 0. -1.
       -2   -1    0    0    0  501  0.00000000000E+00  0.00000000000E+00 -0.28189104134E+02  0.28189104134E+02  0.00000000000E+00 0.  1.
      -24    2    1    2    0    0  0.00000000000E+00  0.00000000000E+00  0.30989515743E+02  0.87367724011E+02  0.81687019243E+02 0.  0.
       11    1    3    3    0    0 -0.34292027027E+02 -0.21634480410E+02  0.20756038421E+02  0.45550049299E+02  0.00000000000E+00 0. -1.
      -12    1    3    3    0    0  0.34292027027E+02  0.21634480410E+02  0.10233477321E+02  0.41817674712E+02  0.00000000000E+00 0.  1.
</event>
<event>
 5   0  0.8936300E+00  0.8083293E+02  0.7957747E-01  0.1325341E+00
        1   -1    0    0  501    0  0.00000000000E+00  0.00000000000E+00  0.76566744365E+02  0.76566744365E+02  0.00000000000E+00 0. -1.
       -2   -1    0    0    0  501  0.00000000000E+00  0.00000000000E+00 -0.21334204538E+02  0.21334204538E+02  0.00000000000E+00 0.  1.
      -24    2    1    2    0    0  0.00000000000E+00  0.00000000000E+00  0.55232539827E+02  0.97900948903E+02  0.80832928565E+02 0.  0.
       11    1    3    3    0    0  0.22889838257E+01  0.13899040875E+02  0.73497473045E+02  0.74835161042E+02  0.00000000000E+00 0. -1.
      -12    1    3    3    0    0 -0.22889838257E+01 -0.13899040875E+02 -0.18264933218E+02  0.23065787861E+02  0.00000000000E+00 0.  1.
</event>
<event>
 5   0  0.8936300E+00  0.7978176E+02  0.7957747E-01  0.1328153E+00
        1   -1    0    0  501    0  0.00000000000E+00  0.00000000000E+00  0.39835082989E+02  0.39835082989E+02  0.00000000000E+00 0. -1.
       -2   -1    0    0    0  501  0.00000000000E+00  0.00000000000E+00 -0.39946752155E+02  0.39946752155E+02  0.00000000000E+00 0.  1.
      -24    2    1    2    0    0  0.00000000000E+00  0.00000000000E+00 -0.11166916559E+00  0.79781835145E+02  0.79781756994E+02 0.  0.
       11    1    3    3    0    0  0.78923864225E+01  0.18792545395E+02  0.34234615472E+02  0.39842921861E+02  0.00000000000E+00 0. -1.
      -12    1    3    3    0    0 -0.78923864225E+01 -0.18792545395E+02 -0.34346284638E+02  0.39938913284E+02  0.00000000000E+00 0.  1.
</event>
<event>
 5   0  0.8936300E+00  0.7816644E+02  0.7957747E-01  0.1332570E+00
        1   -1    0    0  501    0  0.00000000000E+00  0.00000000000E+00  0.22032211546E+03  0.22032211546E+03  0.00000000000E+00 0. -1.
       -2   -1    0    0    0  501  0.00000000000E+00  0.00000000000E+00 -0.69330218269E+01  0.69330218269E+01  0.00000000000E+00 0.  1.
      -24    2    1    2    0    0  0.00000000000E+00  0.00000000000E+00  0.21338909364E+03  0.22725513729E+03  0.78166438718E+02 0.  0.
       11    1    3    3    0    0 -0.10248871534E+01  0.37652028768E+02  0.13701618648E+03  0.14209912393E+03  0.00000000000E+00 0. -1.
      -12    1    3    3    0    0  0.10248871534E+01 -0.37652028768E+02  0.76372907161E+02  0.85156013365E+02  0.00000000000E+00 0.  1.
</event>
<event>
 5   0  0.8936300E+00  0.8168026E+02  0.7957747E-01  0.1323110E+00
        1   -1    0    0  501    0  0.00000000000E+00  0.00000000000E+00  0.30412270247E+02  0.30412270247E+02  0.00000000000E+00 0. -1.
       -2   -1    0    0    0  501  0.00000000000E+00  0.00000000000E+00 -0.54843531012E+02  0.54843531012E+02  0.00000000000E+00 0.  1.
      -24    2    1    2    0    0  0.00000000000E+00  0.00000000000E+00 -0.24431260764E+02  0.85255801259E+02  0.81680261665E+02 0.  0.
       11    1    3    3    0    0  0.37249125994E+02  0.73533229120E+01  0.34878064056E+01  0.38127857777E+02  0.00000000000E+00 0. -1.
      -12    1    3    3    0    0 -0.37249125994E+02 -0.73533229120E+01 -0.27919067170E+02  0.47127943482E+02  0.00000000000E+00 0.  1.
</event>
<event>
 5   0  0.8936300E+00  0.8144806E+02  0.7957747E-01  0.1323718E+00
        1   -1    0    0  501    0  0.00000000000E+00  0.00000000000E+00  0.34396942085E+02  0.34396942085E+02  0.00000000000E+00 0. -1.
       -2   -1    0    0    0  501  0.00000000000E+00  0.00000000000E+00 -0.48214938324E+02  0.48214938324E+02  0.00000000000E+00 0.  1.
      -24    2    1    2    0    0  0.00000000000E+00  0.00000000000E+00 -0.13817996238E+02  0.82611880409E+02  0.81448055622E+02 0.  0.
       11    1    3    3    0    0 -0.15132877109E+02  0.92481660354E+01  0.30274265787E+02  0.35086517547E+02  0.00000000000E+00 0. -1.
      -12    1    3    3    0    0  0.15132877109E+02 -0.92481660354E+01 -0.44092262026E+02  0.47525362862E+02  0.00000000000E+00 0.  1.
</event>
<event>
 5   0  0.8936300E+00  0.8136378E+02  0.7957747E-01  0.1323940E+00
        1   -1    0    0  501    0  0.00000000000E+00  0.00000000000E+00  0.20424746563E+03  0.20424746563E+03  0.00000000000E+00 0. -1.
       -2   -1    0    0    0  501  0.00000000000E+00  0.00000000000E+00 -0.81029955490E+01  0.81029955490E+01  0.00000000000E+00 0.  1.
      -24    2    1    2    0    0  0.00000000000E+00  0.00000000000E+00  0.19614447008E+03  0.21235046118E+03  0.81363783218E+02 0.  0.
       11    1    3    3    0    0 -0.30333907114E+02 -0.15235786616E+02  0.15659088645E+03  0.16022790279E+03  0.00000000000E+00 0. -1.
      -12    1    3    3    0    0  0.30333907114E+02  0.15235786616E+02  0.39553583635E+02  0.52122558389E+02  0.00000000000E+00 0.  1.
</event>
<event>
 5   0  0.8936300E+00  0.8014932E+02  0.7957747E-01  0.1327164E+00
        1   -1    0    0  501    0  0.00000000000E+00  0.00000000000E+00  0.34495249791E+01  0.34495249791E+01  0.00000000000E+00 0. -1.
       -2   -1    0    0    0  501  0.00000000000E+00  0.00000000000E+00 -0.46556507275E+03  0.46556507275E+03  0.00000000000E+00 0.  1.
      -24    2    1    2    0    0  0.00000000000E+00  0.00000000000E+00 -0.46211554777E+03  0.46901459773E+03  0.80149319344E+02 0.  0.
       11    1    3    3    0    0 -0.27110678705E+02  0.12138767165E+02 -0.73642185191E+02  0.79407241532E+02  0.00000000000E+00 0. -1.
      -12    1    3    3    0    0  0.27110678705E+02 -0.12138767165E+02 -0.38847336258E+03  0.38960735620E+03  0.00000000000E+00 0.  1.
</event>
<event>
 5   0  0.8936300E+00  0.8294644E+02  0.7957747E-01  0.1319832E+00
        1   -1    0    0  501    0  0.00000000000E+00  0.00000000000E+00  0.20753748261E+02  0.20753748261E+02  0.00000000000E+00 0. -1.
       -2   -1    0    0    0  501  0.00000000000E+00  0.00000000000E+00 -0.82877939966E+02  0.82877939966E+02  0.00000000000E+00 0.  1.
      -24    2    1    2    0    0  0.00000000000E+00  0.00000000000E+00 -0.62124191705E+02  0.10363168823E+03  0.82946438199E+02 0.  0.
       11    1    3    3    0    0 -0.11596327167E+02 -0.22477171158E+02  0.10003017367E+02  0.27198499655E+02  0.00000000000E+00 0. -1.
      -12    1    3    3    0    0  0.11596327167E+02  0.22477171158E+02 -0.72127209071E+02  0.76433188573E+02  0.00000000000E+00 0.  1.
</event>
<event>
 5   0  0.8936300E+00  0.8018469E+02  0.7957747E-01  0.1327069E+00
        1   -1    0    0  501    0  0.00000000000E+00  0.00000000000E+00  0.14906363526E+02  0.14906363526E+02  0.00000000000E+00 0. -1.
       -2   -1    0    0    0  501  0.00000000000E+00  0.00000000000E+00 -0.10783288974E+03  0.10783288974E+03  0.00000000000E+00 0.  1.
      -24    2    1    2    0    0  0.00000000000E+00  0.00000000000E+00 -0.92926526209E+02  0.12273925326E+03  0.80184693165E+02 0.  0.
       11    1    3    3    0    0  0.39814768511E+02 -0.47082792308E+01 -0.46634876885E+02  0.61499556316E+02  0.00000000000E+00 0. -1.
      -12    1    3    3    0    0 -0.39814768511E+02  0.47082792308E+01 -0.46291649323E+02  0.61239696946E+02  0.00000000000E+00 0.  1.
</event>
<event>
 5   0  0.8936300E+00  0.6375867E+02  0.7957747E-01  0.1378226E+00
        1   -1    0    0  501    0  0.00000000000E+00  0.00000000000E+00  0.15532924903E+03  0.15532924903E+03  0.00000000000E+00 0. -1.
       -2   -1    0    0    0  501  0.00000000000E+00  0.00000000000E+00 -0.65428241066E+01  0.65428241066E+01  0.00000000000E+00 0.  1.
      -24    2    1    2    0    0  0.00000000000E+00  0.00000000000E+00  0.14878642492E+03  0.16187207314E+03  0.63758668588E+02 0.  0.
       11    1    3    3    0    0 -0.14329379920E+02  0.21925543690E+02  0.12052941510E+03  0.12334261429E+03  0.00000000000E+00 0. -1.
      -12    1    3    3    0    0  0.14329379920E+02 -0.21925543690E+02  0.28257009820E+02  0.38529458845E+02  0.00000000000E+00 0.  1.
</event>
<event>
 5   0  0.8936300E+00  0.7587284E+02  0.7957747E-01  0.1339054E+00
        1   -1    0    0  501    0  0.00000000000E+00  0.00000000000E+00  0.98638462993E+01  0.98638462993E+01  0.00000000000E+00 0. -1.
       -2   -1    0    0    0  501  0.00000000000E+00  0.00000000000E+00 -0.14590374855E+03  0.14590374855E+03  0.00000000000E+00 0.  1.
      -24    2    1    2    0    0  0.00000000000E+00  0.00000000000E+00 -0.13603990225E+03  0.15576759485E+03  0.75872844949E+02 0.  0.
       11    1    3    3    0    0  0.40809163128E+01 -0.11511761363E+02  0.57170040555E+01  0.13485498248E+02  0.00000000000E+00 0. -1.
      -12    1    3    3    0    0 -0.40809163128E+01  0.11511761363E+02 -0.14175690630E+03  0.14228209660E+03  0.00000000000E+00 0.  1.
</event>
<event>
 5   0  0.8936300E+00  0.8021898E+02  0.7957747E-01  0.1326977E+00
        1   -1    0    0  501    0  0.00000000000E+00  0.00000000000E+00  0.53585050327E+02  0.53585050327E+02  0.00000000000E+00 0. -1.
       -2   -1    0    0    0  501  0.00000000000E+00  0.00000000000E+00 -0.30022758682E+02  0.30022758682E+02  0.00000000000E+00 0.  1.
      -24    2    1    2    0    0  0.00000000000E+00  0.00000000000E+00  0.23562291645E+02  0.83607809009E+02  0.80218976182E+02 0.  0.
       11    1    3    3    0    0 -0.30267552493E+02 -0.22461304742E+02  0.26076857651E+02  0.45832711567E+02  0.00000000000E+00 0. -1.
      -12    1    3    3    0    0  0.30267552493E+02  0.22461304742E+02 -0.25145660063E+01  0.37775097442E+02  0.00000000000E+00 0.  1.
</event>
<event>
 5   0  0.8936300E+00  0.5933478E+02  0.7957747E-01  0.1395097E+00
       -4   -1    0    0    0  501  0.00000000000E+00  0.00000000000E+00  0.96365783723E+01  0.96365783723E+01  0.00000000000E+00 0.  1.
        3   -1    0    0  501    0  0.00000000000E+00  0.00000000000E+00 -0.91334706947E+02  0.91334706947E+02  0.00000000000E+00 0. -1.
      -24    2    1    2    0    0  0.00000000000E+00  0.00000000000E+00 -0.81698128575E+02  0.10097128532E+03  0.59334781085E+02 0.  0.
       11    1    3    3    0    0 -0.69108097889E+01 -0.28732844675E+02 -0.45292613415E+02  0.54081017789E+02  0.00000000000E+00 0. -1.
      -12    1    3    3    0    0  0.69108097889E+01  0.28732844675E+02 -0.36405515159E+02  0.46890267530E+02  0.00000000000E+00 0.  1.
</event>
<event>
 5   0  0.8936300E+00  0.8214807E+02  0.7957747E-01  0.1321891E+00
        1   -1    0    0  501    0  0.00000000000E+00  0.00000000000E+00  0.56985861502E+01  0.56985861502E+01  0.00000000000E+00 0. -1.
       -2   -1    0    0    0  501  0.00000000000E+00  0.00000000000E+00 -0.29605171770E+03  0.29605171770E+03  0.00000000000E+00 0.  1.
      -24    2    1    2    0    0  0.00000000000E+00  0.00000000000E+00 -0.29035313155E+03  0.30175030385E+03  0.82148066764E+02 0.  0.
       11    1    3    3    0    0 -0.35760682695E+02 -0.40409622723E+01 -0.72457329013E+02  0.80902535996E+02  0.00000000000E+00 0. -1.
      -12    1    3    3    0    0  0.35760682695E+02  0.40409622723E+01 -0.21789580254E+03  0.22084776786E+03  0.00000000000E+00 0.  1.
</event>
<event>
 5   0  0.8936300E+00  0.7879262E+02  0.7957747E-01  0.1330843E+00
        1   -1    0    0  501    0  0.00000000000E+00  0.00000000000E+00  0.97778961746E+01  0.97778961746E+01  0.00000000000E+00 0. -1.
       -2   -1    0    0    0  501  0.00000000000E+00  0.00000000000E+00 -0.15873242901E+03  0.15873242901E+03  0.00000000000E+00 0.  1.
      -24    2    1    2    0    0  0.00000000000E+00  0.00000000000E+00 -0.14895453284E+03  0.16851032519E+03  0.78792619209E+02 0.  0.
       11    1    3    3    0    0  0.31349959047E+02 -0.11397587892E+02 -0.29649875567E+02  0.44630035437E+02  0.00000000000E+00 0. -1.
      -12    1    3    3    0    0 -0.31349959047E+02  0.11397587892E+02 -0.11930465727E+03  0.12388028975E+03  0.00000000000E+00 0.  1.
</event>
<event>
 5   0  0.8936300E+00  0.8040240E+02  0.7957747E-01  0.1326487E+00
        1   -1    0    0  501    0  0.00000000000E+00  0.00000000000E+00  0.22518504120E+02  0.22518504120E+02  0.00000000000E+00 0. -1.
       -2   -1    0    0    0  501  0.00000000000E+00  0.00000000000E+00 -0.71769269935E+02  0.71769269935E+02  0.00000000000E+00 0.  1.
      -24    2    1    2    0    0  0.00000000000E+00  0.00000000000E+00 -0.49250765815E+02  0.94287774056E+02  0.80402402968E+02 0.  0.
       11    1    3    3    0    0  0.19525402472E+02 -0.48371566077E+01  0.16192225731E+02  0.25823005245E+02  0.00000000000E+00 0. -1.
      -12    1    3    3    0    0 -0.19525402472E+02  0.48371566077E+01 -0.65442991546E+02  0.68464768811E+02  0.00000000000E+00 0.  1.
</event>
<event>
 5   0  0.8936300E+00  0.8022703E+02  0.7957747E-01  0.1326956E+00
        1   -1    0    0  501    0  0.00000000000E+00  0.00000000000E+00  0.16558635333E+02  0.16558635333E+02  0.00000000000E+00 0. -1.
       -2   -1    0    0    0  501  0.00000000000E+00  0.00000000000E+00 -0.97175515595E+02  0.97175515595E+02  0.00000000000E+00 0.  1.
      -24    2    1    2    0    0  0.00000000000E+00  0.00000000000E+00 -0.80616880262E+02  0.11373415093E+03  0.80227026021E+02 0.  0.
       11    1    3    3    0    0 -0.24499142903E+02  0.28124906875E+02 -0.19383008213E+02  0.42034740360E+02  0.00000000000E+00 0. -1.
      -12    1    3    3    0    0  0.24499142903E+02 -0.28124906875E+02 -0.61233872049E+02  0.71699410569E+02  0.00000000000E+00 0.  1.
</event>
<event>
 5   0  0.8936300E+00  0.8179412E+02  0.7957747E-01  0.1322812E+00
        1   -1    0    0  501    0  0.00000000000E+00  0.00000000000E+00  0.20667973569E+02  0.20667973569E+02  0.00000000000E+00 0. -1.
       -2   -1    0    0    0  501  0.00000000000E+00  0.00000000000E+00 -0.80925672287E+02  0.80925672287E+02  0.00000000000E+00 0.  1.
      -24    2    1    2    0    0  0.00000000000E+00  0.00000000000E+00 -0.60257698718E+02  0.10159364586E+03  0.81794123406E+02 0.  0.
       11    1    3    3    0    0 -0.11418846997E+02 -0.29523358353E+02  0.20344296909E+01  0.31719988325E+02  0.00000000000E+00 0. -1.
      -12    1    3    3    0    0  0.11418846997E+02  0.29523358353E+02 -0.62292128409E+02  0.69873657532E+02  0.00000000000E+00 0.  1.
</event>
<event>
 5   0  0.8936300E+00  0.8036815E+02  0.7957747E-01  0.1326578E+00
        1   -1    0    0  501    0  0.00000000000E+00  0.00000000000E+00  0.66493018718E+02  0.66493018718E+02  0.00000000000E+00 0. -1.
       -2   -1    0    0    0  501  0.00000000000E+00  0.00000000000E+00 -0.24284652295E+02  0.24284652295E+02  0.00000000000E+00 0.  1.
      -24    2    1    2    0    0  0.00000000000E+00  0.00000000000E+00  0.42208366423E+02  0.90777671014E+02  0.80368148906E+02 0.  0.
       11    1    3    3    0    0 -0.17805485677E+02 -0.20332369137E+02 -0.12485013580E+02  0.29771061772E+02  0.00000000000E+00 0. -1.
      -12    1    3    3    0    0  0.17805485677E+02  0.20332369137E+02  0.54693380003E+02  0.61006609241E+02  0.00000000000E+00 0.  1.
</event>
<event>
 5   0  0.8936300E+00  0.7917446E+02  0.7957747E-01  0.1329799E+00
        1   -1    0    0  501    0  0.00000000000E+00  0.00000000000E+00  0.28098788281E+02  0.28098788281E+02  0.00000000000E+00 0. -1.
       -2   -1    0    0    0  501  0.00000000000E+00  0.00000000000E+00 -0.55772817447E+02  0.55772817447E+02  0.00000000000E+00 0.  1.
      -24    2    1    2    0    0  0.00000000000E+00  0.00000000000E+00 -0.27674029166E+02  0.83871605728E+02  0.79174455205E+02 0.  0.
       11    1    3    3    0    0 -0.10134244496E+02 -0.37195696548E+02 -0.43074409206E+01  0.38791452673E+02  0.00000000000E+00 0. -1.
      -12    1    3    3    0    0  0.10134244496E+02  0.37195696548E+02 -0.23366588246E+02  0.45080153055E+02  0.00000000000E+00 0.  1.
</event>
<event>
 5   0  0.8936300E+00  0.8161274E+02  0.7957747E-01  0.1323287E+00
        1   -1    0    0  501    0  0.00000000000E+00  0.00000000000E+00  0.98724229634E+01  0.98724229634E+01  0.00000000000E+00 0. -1.
       -2   -1    0    0    0  501  0.00000000000E+00  0.00000000000E+00 -0.16866777715E+03  0.16866777715E+03  0.00000000000E+00 0.  1.
      -24    2    1    2    0    0  0.00000000000E+00  0.00000000000E+00 -0.15879535418E+03  0.17854020011E+03  0.81612735190E+02 0.  0.
       11    1    3    3    0    0  0.32468514661E+02  0.20724747355E+02 -0.49930085001E+02  0.63061343035E+02  0.00000000000E+00 0. -1.
      -12    1    3    3    0    0 -0.32468514661E+02 -0.20724747355E+02 -0.10886526918E+03  0.11547885707E+03  0.00000000000E+00 0.  1.
</event>
<event>
 5   0  0.8936300E+00  0.8379010E+02  0.7957747E-01  0.1317685E+00
        1   -1    0    0  501    0  0.00000000000E+00  0.00000000000E+00  0.17989781555E+02  0.17989781555E+02  0.00000000000E+00 0. -1.
       -2   -1    0    0    0  501  0.00000000000E+00  0.00000000000E+00 -0.97566239971E+02  0.97566239971E+02  0.00000000000E+00 0.  1.
      -24    2    1    2    0    0  0.00000000000E+00  0.00000000000E+00 -0.79576458416E+02  0.11555602153E+03  0.83790103096E+02 0.  0.
       11    1    3    3    0    0  0.25316063316E+02  0.33380318826E+02 -0.39490527755E+02  0.57573001738E+02  0.00000000000E+00 0. -1.
      -12    1    3    3    0    0 -0.25316063316E+02 -0.33380318826E+02 -0.40085930660E+02  0.57983019787E+02  0.00000000000E+00 0.  1.
</event>
<event>
 5   0  0.8936300E+00  0.7400585E+02  0.7957747E-01  0.1344527E+00
       -2   -1    0    0    0  501  0.00000000000E+00  0.00000000000E+00  0.26632534332E+02  0.26632534332E+02  0.00000000000E+00 0.  1.
        1   -1    0    0  501    0  0.00000000000E+00  0.00000000000E+00 -0.51411422612E+02  0.51411422612E+02  0.00000000000E+00 0. -1.
      -24    2    1    2    0    0  0.00000000000E+00  0.00000000000E+00 -0.24778888280E+02  0.78043956944E+02  0.74005850520E+02 0.  0.
       11    1    3    3    0    0 -0.21628811273E+02  0.25909826745E+02 -0.28385903669E+02  0.44100840425E+02  0.00000000000E+00 0. -1.
      -12    1    3    3    0    0  0.21628811273E+02 -0.25909826745E+02  0.36070153895E+01  0.33943116520E+02  0.00000000000E+00 0.  1.
</event>
<event>
 5   0  0.8936300E+00  0.8193707E+02  0.7957747E-01  0.1322440E+00
        1   -1    0    0  501    0  0.00000000000E+00  0.00000000000E+00  0.71720351133E+01  0.71720351133E+01  0.00000000000E+00 0. -1.
       -2   -1    0    0    0  501  0.00000000000E+00  0.00000000000E+00 -0.23402298456E+03  0.23402298456E+03  0.00000000000E+00 0.  1.
      -24    2    1    2    0    0  0.00000000000E+00  0.00000000000E+00 -0.22685094945E+03  0.24119501968E+03  0.81937074944E+02 0.  0.
       11    1    3    3    0    0  0.12223943805E+02 -0.65596517948E+01  0.47514527270E-01  0.13872854481E+02  0.00000000000E+00 0. -1.
      -12    1    3    3    0    0 -0.12223943805E+02  0.65596517948E+01 -0.22689846398E+03  0.22732216520E+03  0.00000000000E+00 0.  1.
</event>
<event>
 5   0  0.8936300E+00  0.8258403E+02  0.7957747E-01  0.1320763E+00
       -2   -1    0    0    0  501  0.00000000000E+00  0.00000000000E+00  0.45392701617E+02  0.45392701617E+02  0.00000000000E+00 0.  1.
        1   -1    0    0  501    0  0.00000000000E+00  0.00000000000E+00 -0.37561773920E+02  0.37561773920E+02  0.00000000000E+00 0. -1.
      -24    2    1    2    0    0  0.00000000000E+00  0.00000000000E+00  0.78309276970E+01  0.82954475537E+02  0.82584027408E+02 0.  0.
       11    1    3    3    0    0  0.20827286784E+02  0.23538115151E+02 -0.22985474738E+02  0.38937780992E+02  0.00000000000E+00 0. -1.
      -12    1    3    3    0    0 -0.20827286784E+02 -0.23538115151E+02  0.30816402435E+02  0.44016694545E+02  0.00000000000E+00 0.  1.
</event>
<event>
 5   0  0.8936300E+00  0.9203302E+02  0.7957747E-01  0.1298101E+00
        1   -1    0    0  501    0  0.00000000000E+00  0.00000000000E+00  0.68061288312E+02  0.68061288312E+02  0.00000000000E+00 0. -1.
       -2   -1    0    0    0  501  0.00000000000E+00  0.00000000000E+00 -0.31111944679E+02  0.31111944679E+02  0.00000000000E+00 0.  1.
      -24    2    1    2    0    0  0.00000000000E+00  0.00000000000E+00  0.36949343633E+02  0.99173232991E+02  0.92033016613E+02 0.  0.
       11    1    3    3    0    0  0.21352101911E+02  0.45672667197E+01  0.62123401025E+02  0.65848987359E+02  0.00000000000E+00 0. -1.
      -12    1    3    3    0    0 -0.21352101911E+02 -0.45672667197E+01 -0.25174057392E+02  0.33324245631E+02  0.00000000000E+00 0.  1.
</event>
<event>
 5   0  0.8936300E+00  0.7963901E+02  0.7957747E-01  0.1328538E+00
        1   -1    0    0  501    0  0.00000000000E+00  0.00000000000E+00  0.41143206570E+01  0.41143206570E+01  0.00000000000E+00 0. -1.
       -2   -1    0    0    0  501  0.00000000000E+00  0.00000000000E+00 -0.38538387838E+03  0.38538387838E+03  0.00000000000E+00 0.  1.
      -24    2    1    2    0    0  0.00000000000E+00  0.00000000000E+00 -0.38126955772E+03  0.38949819903E+03  0.79639006816E+02 0.  0.
       11    1    3    3    0    0  0.21338708834E+01  0.38666833995E+02 -0.14530171046E+03  0.15037374943E+03  0.00000000000E+00 0. -1.
      -12    1    3    3    0    0 -0.21338708834E+01 -0.38666833995E+02 -0.23596784726E+03  0.23912444960E+03  0.00000000000E+00 0.  1.
</event>
<event>
 5   0  0.8936300E+00  0.8255877E+02  0.7957747E-01  0.1320829E+00
        1   -1    0    0  501    0  0.00000000000E+00  0.00000000000E+00  0.24897681712E+02  0.24897681712E+02  0.00000000000E+00 0. -1.
       -2   -1    0    0    0  501  0.00000000000E+00  0.00000000000E+00 -0.68439616852E+02  0.68439616852E+02  0.00000000000E+00 0.  1.
      -24    2    1    2    0    0  0.00000000000E+00  0.00000000000E+00 -0.43541935140E+02  0.93337298564E+02  0.82558774139E+02 0.  0.
       11    1    3    3    0    0  0.31256199294E+02  0.16502681347E+02  0.23366414431E+01  0.35422427630E+02  0.00000000000E+00 0. -1.
      -12    1    3    3    0    0 -0.31256199294E+02 -0.16502681347E+02 -0.45878576583E+02  0.57914870934E+02  0.00000000000E+00 0.  1.
</event>
<event>
 5   0  0.8936300E+00  0.8033668E+02  0.7957747E-01  0.1326662E+00
        1   -1    0    0  501    0  0.00000000000E+00  0.00000000000E+00  0.31416213280E+01  0.31416213280E+01  0.00000000000E+00 0. -1.
       -2   -1    0    0    0  501  0.00000000000E+00  0.00000000000E+00 -0.51358692778E+03  0.51358692778E+03  0.00000000000E+00 0.  1.
      -24    2    1    2    0    0  0.00000000000E+00  0.00000000000E+00 -0.51044530645E+03  0.51672854911E+03  0.80336682682E+02 0.  0.
       11    1    3    3    0    0 -0.17183572223E+02 -0.40566214121E+01 -0.23154929055E+02  0.29118414641E+02  0.00000000000E+00 0. -1.
      -12    1    3    3    0    0  0.17183572223E+02  0.40566214121E+01 -0.48729037739E+03  0.48761013446E+03  0.00000000000E+00 0.  1.
</event>
<event>
 5   0  0.8936300E+00  0.7918717E+02  0.7957747E-01  0.1329765E+00
        1   -1    0    0  501    0  0.00000000000E+00  0.00000000000E+00  0.17478532369E+03  0.17478532369E+03  0.00000000000E+00 0. -1.
       -2   -1    0    0    0  501  0.00000000000E+00  0.00000000000E+00 -0.89690138543E+01  0.89690138543E+01  0.00000000000E+00 0.  1.
      -24    2    1    2    0    0  0.00000000000E+00  0.00000000000E+00  0.16581630983E+03  0.18375433754E+03  0.79187170418E+02 0.  0.
       11    1    3    3    0    0 -0.36186482066E+02  0.63124833938E+01  0.11719696939E+03  0.12281872238E+03  0.00000000000E+00 0. -1.
      -12    1    3    3    0    0  0.36186482066E+02 -0.63124833938E+01  0.48619340441E+02  0.60935615168E+02  0.00000000000E+00 0.  1.
</event>
<event>
 5   0  0.8936300E+00  0.8061342E+02  0.7957747E-01  0.1325924E+00
        1   -1    0    0  501    0  0.00000000000E+00  0.00000000000E+00  0.69413238071E+01  0.69413238071E+01  0.00000000000E+00 0. -1.
       -2   -1    0    0    0  501  0.00000000000E+00  0.00000000000E+00 -0.23405201030E+03  0.23405201030E+03  0.00000000000E+00 0.  1.
      -24    2    1    2    0    0  0.00000000000E+00  0.00000000000E+00 -0.22711068649E+03  0.24099333411E+03  0.80613418020E+02 0.  0.
       11    1    3    3    0    0 -0.29941285174E+02  0.23136922315E+02 -0.72041930262E+02  0.81374673259E+02  0.00000000000E+00 0. -1.
      -12    1    3    3    0    0  0.29941285174E+02 -0.23136922315E+02 -0.15506875623E+03  0.15961866085E+03  0.00000000000E+00 0.  1.
</event>
<event>
 5   0  0.8936300E+00  0.8146217E+02  0.7957747E-01  0.1323681E+00
        1   -1    0    0  501    0  0.00000000000E+00  0.00000000000E+00  0.19886038295E+02  0.19886038295E+02  0.00000000000E+00 0. -1.
       -2   -1    0    0    0  501  0.00000000000E+00  0.00000000000E+00 -0.83426441993E+02  0.83426441993E+02  0.00000000000E+00 0.  1.
      -24    2    1    2    0    0  0.00000000000E+00  0.00000000000E+00 -0.63540403698E+02  0.10331248029E+03  0.81462173315E+02 0.  0.
       11    1    3    3    0    0 -0.29932058466E+02 -0.15264936208E+02 -0.25713708515E+01  0.33698046672E+02  0.00000000000E+00 0. -1.
      -12    1    3    3    0    0  0.29932058466E+02  0.15264936208E+02 -0.60969032847E+02  0.69614433616E+02  0.00000000000E+00 0.  1.
</event>
<event>
 4   0  0.8936300E+00  0.3147214E+03  0.7957747E-01  0.1086504E+00
        1   -1    0    0  501    0  0.00000000000E+00  0.00000000000E+00  0.16587636940E+03  0.16587636940E+03  0.00000000000E+00 0. -1.
       -2   -1    0    0    0  501  0.00000000000E+00  0.00000000000E+00 -0.14928223479E+03  0.14928223479E+03  0.00000000000E+00 0.  1.
       11    1    1    2    0    0 -0.10308832402E+02  0.10771574552E+03  0.12270742880E+03  0.16360338303E+03  0.00000000000E+00 0. -1.
      -12    1    1    2    0    0  0.10308832402E+02 -0.10771574552E+03 -0.10611329418E+03  0.15155522116E+03  0.00000000000E+00 0.  1.
</event>
<event>
 5   0  0.8936300E+00  0.8127832E+02  0.7957747E-01  0.1324164E+00
        1   -1    0    0  501    0  0.00000000000E+00  0.00000000000E+00  0.63332996592E+02  0.63332996592E+02  0.00000000000E+00 0. -1.
       -2   -1    0    0    0  501  0.00000000000E+00  0.00000000000E+00 -0.26077108696E+02  0.26077108696E+02  0.00000000000E+00 0.  1.
      -24    2    1    2    0    0  0.00000000000E+00  0.00000000000E+00  0.37255887897E+02  0.89410105288E+02  0.81278322723E+02 0.  0.
       11    1    3    3    0    0  0.13362641876E+02  0.13964822459E+01  0.60819233265E+02  0.62285548047E+02  0.00000000000E+00 0. -1.
      -12    1    3    3    0    0 -0.13362641876E+02 -0.13964822459E+01 -0.23563345368E+02  0.27124557241E+02  0.00000000000E+00 0.  1.
</event>
<event>
 5   0  0.8936300E+00  0.7943987E+02  0.7957747E-01  0.1329077E+00
        1   -1    0    0  501    0  0.00000000000E+00  0.00000000000E+00  0.73993827687E+01  0.73993827687E+01  0.00000000000E+00 0. -1.
       -2   -1    0    0    0  501  0.00000000000E+00  0.00000000000E+00 -0.21321688857E+03  0.21321688857E+03  0.00000000000E+00 0.  1.
      -24    2    1    2    0    0  0.00000000000E+00  0.00000000000E+00 -0.20581750580E+03  0.22061627134E+03  0.79439873396E+02 0.  0.
       11    1    3    3    0    0 -0.38984058760E+02  0.54565928054E+01 -0.11764128753E+03  0.12405242349E+03  0.00000000000E+00 0. -1.
      -12    1    3    3    0    0  0.38984058760E+02 -0.54565928054E+01 -0.88176218276E+02  0.96563847852E+02  0.00000000000E+00 0.  1.
</event>
<event>
 5   0  0.8936300E+00  0.8044647E+02  0.7957747E-01  0.1326369E+00
       -2   -1    0    0    0  501  0.00000000000E+00  0.00000000000E+00  0.29874295851E+02  0.29874295851E+02  0.00000000000E+00 0.  1.
        1   -1    0    0  501    0  0.00000000000E+00  0.00000000000E+00 -0.54157214211E+02  0.54157214211E+02  0.00000000000E+00 0. -1.
      -24    2    1    2    0    0  0.00000000000E+00  0.00000000000E+00 -0.24282918359E+02  0.84031510062E+02  0.80446470148E+02 0.  0.
       11    1    3    3    0    0 -0.12020650753E+02  0.23456647308E+02 -0.43879686870E+02  0.51187276420E+02  0.00000000000E+00 0. -1.
      -12    1    3    3    0    0  0.12020650753E+02 -0.23456647308E+02  0.19596768511E+02  0.32844233642E+02  0.00000000000E+00 0.  1.
</event>
<event>
 5   0  0.8936300E+00  0.7884727E+02  0.7957747E-01  0.1330693E+00
        1   -1    0    0  501    0  0.00000000000E+00  0.00000000000E+00  0.85405781264E+01  0.85405781264E+01  0.00000000000E+00 0. -1.
       -2   -1    0    0    0  501  0.00000000000E+00  0.00000000000E+00 -0.18198100239E+03  0.18198100239E+03  0.00000000000E+00 0.  1.
      -24    2    1    2    0    0  0.00000000000E+00  0.00000000000E+00 -0.17344042427E+03  0.19052158052E+03  0.78847269286E+02 0.  0.
       11    1    3    3    0    0  0.39722577262E+01  0.99865579002E+01  0.49323419824E+01  0.11825318920E+02  0.00000000000E+00 0. -1.
      -12    1    3    3    0    0 -0.39722577262E+01 -0.99865579002E+01 -0.17837276625E+03  0.17869626160E+03  0.00000000000E+00 0.  1.
</event>
<event>
 5   0  0.8936300E+00  0.8337480E+02  0.7957747E-01  0.1318738E+00
        1   -1    0    0  501    0  0.00000000000E+00  0.00000000000E+00  0.13552628600E+02  0.13552628600E+02  0.00000000000E+00 0. -1.
       -2   -1    0    0    0  501  0.00000000000E+00  0.00000000000E+00 -0.12822893995E+03  0.12822893995E+03  0.00000000000E+00 0.  1.
      -24    2    1    2    0    0  0.00000000000E+00  0.00000000000E+00 -0.11467631135E+03  0.14178156855E+03  0.83374797125E+02 0.  0.
       11    1    3    3    0    0  0.61256611689E+01 -0.21748347135E+02  0.22369407668E+01  0.22705026577E+02  0.00000000000E+00 0. -1.
      -12    1    3    3    0    0 -0.61256611689E+01  0.21748347135E+02 -0.11691325212E+03  0.11907654197E+03  0.00000000000E+00 0.  1.
</event>
<event>
 5   0  0.8936300E+00  0.8320128E+02  0.7957747E-01  0.1319180E+00
       -2   -1    0    0    0  501  0.00000000000E+00  0.00000000000E+00  0.43081851478E+02  0.43081851478E+02  0.00000000000E+00 0.  1.
        1   -1    0    0  501    0  0.00000000000E+00  0.00000000000E+00 -0.40170357154E+02  0.40170357154E+02  0.00000000000E+00 0. -1.
      -24    2    1    2    0    0  0.00000000000E+00  0.00000000000E+00  0.29114943244E+01  0.83252208632E+02  0.83201282700E+02 0.  0.
       11    1    3    3    0    0  0.23307661188E+02 -0.17143396598E+02 -0.28453521151E+02  0.40580118073E+02  0.00000000000E+00 0. -1.
      -12    1    3    3    0    0 -0.23307661188E+02  0.17143396598E+02  0.31365015475E+02  0.42672090559E+02  0.00000000000E+00 0.  1.
</event>
<event>
 5   0  0.8936300E+00  0.7954215E+02  0.7957747E-01  0.1328800E+00
       -2   -1    0    0    0  501  0.00000000000E+00  0.00000000000E+00  0.17449244266E+02  0.17449244266E+02  0.00000000000E+00 0.  1.
        1   -1    0    0  501    0  0.00000000000E+00  0.00000000000E+00 -0.90647965056E+02  0.90647965056E+02  0.00000000000E+00 0. -1.
      -24    2    1    2    0    0  0.00000000000E+00  0.00000000000E+00 -0.73198720789E+02  0.10809720932E+03  0.79542151957E+02 0.  0.
       11    1    3    3    0    0  0.57470446703E+01  0.26842104010E+02 -0.75709354606E+02  0.80532188875E+02  0.00000000000E+00 0. -1.
      -12    1    3    3    0    0 -0.57470446703E+01 -0.26842104010E+02  0.25106338165E+01  0.27565020447E+02  0.00000000000E+00 0.  1.
</event>
<event>
 5   0  0.8936300E+00  0.8112145E+02  0.7957747E-01  0.1324578E+00
        1   -1    0    0  501    0  0.00000000000E+00  0.00000000000E+00  0.71349240103E+02  0.71349240103E+02  0.00000000000E+00 0. -1.
       -2   -1    0    0    0  501  0.00000000000E+00  0.00000000000E+00 -0.23058020489E+02  0.23058020489E+02  0.00000000000E+00 0.  1.
      -24    2    1    2    0    0  0.00000000000E+00  0.00000000000E+00  0.48291219614E+02  0.94407260593E+02  0.81121445751E+02 0.  0.
       11    1    3    3    0    0  0.38890691411E+02 -0.11361993987E+02  0.21940120819E+02  0.46075478156E+02  0.00000000000E+00 0. -1.
      -12    1    3    3    0    0 -0.38890691411E+02  0.11361993987E+02  0.26351098795E+02  0.48331782436E+02  0.00000000000E+00 0.  1.
</event>
<event>
 5   0  0.8936300E+00  0.7424264E+02  0.7957747E-01  0.1343823E+00
       -2   -1    0    0    0  501  0.00000000000E+00  0.00000000000E+00  0.69626134397E+02  0.69626134397E+02  0.00000000000E+00 0.  1.
        1   -1    0    0  501    0  0.00000000000E+00  0.00000000000E+00 -0.19791311040E+02  0.19791311040E+02  0.00000000000E+00 0. -1.
      -24    2    1    2    0    0  0.00000000000E+00  0.00000000000E+00  0.49834823357E+02  0.89417445437E+02  0.74242642258E+02 0.  0.
       11    1    3    3    0    0  0.29703682271E+02  0.42401054678E+01 -0.14064042045E+01  0.30037729735E+02  0.00000000000E+00 0. -1.
      -12    1    3    3    0    0 -0.29703682271E+02 -0.42401054678E+01  0.51241227561E+02  0.59379715702E+02  0.00000000000E+00 0.  1.
</event>
<event>
 5   0  0.8936300E+00  0.8107746E+02  0.7957747E-01  0.1324694E+00
       -2   -1    0    0    0  501  0.00000000000E+00  0.00000000000E+00  0.51281289704E+02  0.51281289704E+02  0.00000000000E+00 0.  1.
        1   -1    0    0  501    0  0.00000000000E+00  0.00000000000E+00 -0.32046554214E+02  0.32046554214E+02  0.00000000000E+00 0. -1.
      -24    2    1    2    0    0  0.00000000000E+00  0.00000000000E+00  0.19234735490E+02  0.83327843919E+02  0.81077460017E+02 0.  0.
       11    1    3    3    0    0 -0.24789746174E+02  0.27884492819E+02 -0.66754715896E+01  0.37903012757E+02  0.00000000000E+00 0. -1.
      -12    1    3    3    0    0  0.24789746174E+02 -0.27884492819E+02  0.25910207080E+02  0.45424831161E+02  0.00000000000E+00 0.  1.
</event>
<event>
 5   0  0.8936300E+00  0.7652578E+02  0.7957747E-01  0.1337182E+00
        1   -1    0    0  501    0  0.00000000000E+00  0.00000000000E+00  0.59000533147E+02  0.59000533147E+02  0.00000000000E+00 0. -1.
       -2   -1    0    0    0  501  0.00000000000E+00  0.00000000000E+00 -0.24814159408E+02  0.24814159408E+02  0.00000000000E+00 0.  1.
      -24    2    1    2    0    0  0.00000000000E+00  0.00000000000E+00  0.34186373739E+02  0.83814692555E+02  0.76525776955E+02 0.  0.
       11    1    3    3    0    0  0.21012024966E+02 -0.69225951494E+01  0.51285644492E+02  0.55853780962E+02  0.00000000000E+00 0. -1.
      -12    1    3    3    0    0 -0.21012024966E+02  0.69225951494E+01 -0.17099270753E+02  0.27960911593E+02  0.00000000000E+00 0.  1.
</event>
<event>
 5   0  0.8936300E+00  0.7389427E+02  0.7957747E-01  0.1344860E+00
        1   -1    0    0  501    0  0.00000000000E+00  0.00000000000E+00  0.55713624341E+01  0.55713624341E+01  0.00000000000E+00 0. -1.
       -2   -1    0    0    0  501  0.00000000000E+00  0.00000000000E+00 -0.24501917678E+03  0.24501917678E+03  0.00000000000E+00 0.  1.
      -24    2    1    2    0    0  0.00000000000E+00  0.00000000000E+00 -0.23944781434E+03  0.25059053921E+03  0.73894266006E+02 0.  0.
       11    1    3    3    0    0  0.23777484471E+02  0.47099256527E+01 -0.25162293714E+02  0.34938420004E+02  0.00000000000E+00 0. -1.
      -12    1    3    3    0    0 -0.23777484471E+02 -0.47099256527E+01 -0.21428552063E+03  0.21565211921E+03  0.00000000000E+00 0.  1.
</event>
<event>
 5   0  0.8936300E+00  0.7610238E+02  0.7957747E-01  0.1338394E+00
        1   -1    0    0  501    0  0.00000000000E+00  0.00000000000E+00  0.51718705488E+01  0.51718705488E+01  0.00000000000E+00 0. -1.
       -2   -1    0    0    0  501  0.00000000000E+00  0.00000000000E+00 -0.27995535914E+03  0.27995535914E+03  0.00000000000E+00 0.  1.
      -24    2    1    2    0    0  0.00000000000E+00  0.00000000000E+00 -0.27478348859E+03  0.28512722969E+03  0.76102375178E+02 0.  0.
       11    1    3    3    0    0 -0.13664291626E+02 -0.14839618084E+02 -0.16510561022E+02  0.26067714817E+02  0.00000000000E+00 0. -1.
      -12    1    3    3    0    0  0.13664291626E+02  0.14839618084E+02 -0.25827292757E+03  0.25905951487E+03  0.00000000000E+00 0.  1.
</event>
<event>
 5   0  0.8936300E+00  0.8432091E+02  0.7957747E-01  0.1316348E+00
        1   -1    0    0  501    0  0.00000000000E+00  0.00000000000E+00  0.91341288511E+01  0.91341288511E+01  0.00000000000E+00 0. -1.
       -2   -1    0    0    0  501  0.00000000000E+00  0.00000000000E+00 -0.19460025541E+03  0.19460025541E+03  0.00000000000E+00 0.  1.
      -24    2    1    2    0    0  0.00000000000E+00  0.00000000000E+00 -0.18546612656E+03  0.20373438426E+03  0.84320906242E+02 0.  0.
       11    1    3    3    0    0 -0.28276390295E+02  0.24967131188E+02 -0.47234940022E+02  0.60448750580E+02  0.00000000000E+00 0. -1.
      -12    1    3    3    0    0  0.28276390295E+02 -0.24967131188E+02 -0.13823118654E+03  0.14328563368E+03  0.00000000000E+00 0.  1.
</event>
<event>
 5   0  0.8936300E+00  0.8379334E+02  0.7957747E-01  0.1317676E+00
        1   -1    0    0  501    0  0.00000000000E+00  0.00000000000E+00  0.10102281364E+02  0.10102281364E+02  0.00000000000E+00 0. -1.
       -2   -1    0    0    0  501  0.00000000000E+00  0.00000000000E+00 -0.17375589772E+03  0.17375589772E+03  0.00000000000E+00 0.  1.
      -24    2    1    2    0    0  0.00000000000E+00  0.00000000000E+00 -0.16365361636E+03  0.18385817909E+03  0.83793340248E+02 0.  0.
       11    1    3    3    0    0 -0.41574116294E+02  0.86720001038E+00 -0.70601710412E+02  0.81937541424E+02  0.00000000000E+00 0. -1.
      -12    1    3    3    0    0  0.41574116294E+02 -0.86720001038E+00 -0.93051905945E+02  0.10192063766E+03  0.00000000000E+00 0.  1.
</event>
<event>
 5   0  0.8936300E+00  0.8122530E+02  0.7957747E-01  0.1324304E+00
        1   -1    0    0  501    0  0.00000000000E+00  0.00000000000E+00  0.36003740746E+02  0.36003740746E+02  0.00000000000E+00 0. -1.
       -2   -1    0    0    0  501  0.00000000000E+00  0.00000000000E+00 -0.45811550877E+02  0.45811550877E+02  0.00000000000E+00 0.  1.
      -24    2    1    2    0    0  0.00000000000E+00  0.00000000000E+00 -0.98078101301E+01  0.81815291623E+02  0.81225296576E+02 0.  0.
       11    1    3    3    0    0  0.97778628168E+01  0.21739181825E+02  0.28216367376E+02  0.36937271360E+02  0.00000000000E+00 0. -1.
      -12    1    3    3    0    0 -0.97778628168E+01 -0.21739181825E+02 -0.38024177506E+02  0.44878020262E+02  0.00000000000E+00 0.  1.
</event>
<event>
 5   0  0.8936300E+00  0.7945488E+02  0.7957747E-01  0.1329037E+00
        1   -1    0    0  501    0  0.00000000000E+00  0.00000000000E+00  0.18071426104E+02  0.18071426104E+02  0.00000000000E+00 0. -1.
       -2   -1    0    0    0  501  0.00000000000E+00  0.00000000000E+00 -0.87335078584E+02  0.87335078584E+02  0.00000000000E+00 0.  1.
      -24    2    1    2    0    0  0.00000000000E+00  0.00000000000E+00 -0.69263652480E+02  0.10540650469E+03  0.79454878237E+02 0.  0.
       11    1    3    3    0    0  0.41074187822E+01  0.28456026823E+02  0.17392006359E+01  0.28803492331E+02  0.00000000000E+00 0. -1.
      -12    1    3    3    0    0 -0.41074187822E+01 -0.28456026823E+02 -0.71002853116E+02  0.76603012357E+02  0.00000000000E+00 0.  1.
</event>
<event>
 5   0  0.8936300E+00  0.8060666E+02  0.7957747E-01  0.1325942E+00
       -2   -1    0    0    0  501  0.00000000000E+00  0.00000000000E+00  0.23362821561E+03  0.23362821561E+03  0.00000000000E+00 0.  1.
        1   -1    0    0  501    0  0.00000000000E+00  0.00000000000E+00 -0.69527494668E+01  0.69527494668E+01  0.00000000000E+00 0. -1.
      -24    2    1    2    0    0  0.00000000000E+00  0.00000000000E+00  0.22667546615E+03  0.24058096508E+03  0.80606661053E+02 0.  0.
       11    1    3    3    0    0 -0.13187204614E+02  0.26452862973E+02  0.31562055007E+02  0.43241411185E+02  0.00000000000E+00 0. -1.
      -12    1    3    3    0    0  0.13187204614E+02 -0.26452862973E+02  0.19511341114E+03  0.19733955389E+03  0.00000000000E+00 0.  1.
</event>
<event>
 5   0  0.8936300E+00  0.8683744E+02  0.7957747E-01  0.1310160E+00
       -4   -1    0    0    0  501  0.00000000000E+00  0.00000000000E+00  0.11725328821E+03  0.11725328821E+03  0.00000000000E+00 0.  1.
        3   -1    0    0  501    0  0.00000000000E+00  0.00000000000E+00 -0.16077889800E+02  0.16077889800E+02  0.00000000000E+00 0. -1.
      -24    2    1    2    0    0  0.00000000000E+00  0.00000000000E+00  0.10117539841E+03  0.13333117801E+03  0.86837444608E+02 0.  0.
       11    1    3    3    0    0 -0.13224432848E+02  0.72667377490E+01 -0.11922474973E+02  0.19231133902E+02  0.00000000000E+00 0. -1.
      -12    1    3    3    0    0  0.13224432848E+02 -0.72667377490E+01  0.11309787338E+03  0.11410004411E+03  0.00000000000E+00 0.  1.
</event>
<event>
 5   0  0.8936300E+00  0.7884998E+02  0.7957747E-01  0.1330686E+00
       -4   -1    0    0    0  501  0.00000000000E+00  0.00000000000E+00  0.17737653377E+03  0.17737653377E+03  0.00000000000E+00 0.  1.
        3   -1    0    0  501    0  0.00000000000E+00  0.00000000000E+00 -0.87628834671E+01  0.87628834671E+01  0.00000000000E+00 0. -1.
      -24    2    1    2    0    0  0.00000000000E+00  0.00000000000E+00  0.16861365031E+03  0.18613941724E+03  0.78849981491E+02 0.  0.
       11    1    3    3    0    0 -0.35539055622E+02 -0.61050895690E+01  0.46681342390E+02  0.58986814802E+02  0.00000000000E+00 0. -1.
      -12    1    3    3    0    0  0.35539055622E+02  0.61050895690E+01  0.12193230792E+03  0.12715260244E+03  0.00000000000E+00 0.  1.
</event>
<event>
 5   0  0.8936300E+00  0.7996218E+02  0.7957747E-01  0.1327666E+00
        1   -1    0    0  501    0  0.00000000000E+00  0.00000000000E+00  0.21243357122E+03  0.21243357122E+03  0.00000000000E+00 0. -1.
       -2   -1    0    0    0  501  0.00000000000E+00  0.00000000000E+00 -0.75246472742E+01  0.75246472742E+01  0.00000000000E+00 0.  1.
      -24    2    1    2    0    0  0.00000000000E+00  0.00000000000E+00  0.20490892394E+03  0.21995821849E+03  0.79962183377E+02 0.  0.
       11    1    3    3    0    0 -0.20450267094E+02 -0.33496667428E+02  0.12344842084E+03  0.12953668500E+03  0.00000000000E+00 0. -1.
      -12    1    3    3    0    0  0.20450267094E+02  0.33496667428E+02  0.81460503099E+02  0.90421533487E+02  0.00000000000E+00 0.  1.
</event>
<event>
 5   0  0.8936300E+00  0.8112825E+02  0.7957747E-01  0.1324560E+00
        1   -1    0    0  501    0  0.00000000000E+00  0.00000000000E+00  0.99707627734E+01  0.99707627734E+01  0.00000000000E+00 0. -1.
       -2   -1    0    0    0  501  0.00000000000E+00  0.00000000000E+00 -0.16502731727E+03  0.16502731727E+03  0.00000000000E+00 0.  1.
      -24    2    1    2    0    0  0.00000000000E+00  0.00000000000E+00 -0.15505655450E+03  0.17499808004E+03  0.81128249867E+02 0.  0.
       11    1    3    3    0    0  0.30778338928E+02  0.18695620779E+02 -0.37253352299E+02  0.51813556537E+02  0.00000000000E+00 0. -1.
      -12    1    3    3    0    0 -0.30778338928E+02 -0.18695620779E+02 -0.11780320220E+03  0.12318452351E+03  0.00000000000E+00 0.  1.
</event>
<event>
 5   0  0.8936300E+00  0.8186005E+02  0.7957747E-01  0.1322640E+00
        1   -1    0    0  501    0  0.00000000000E+00  0.00000000000E+00  0.76134999677E+02  0.76134999677E+02  0.00000000000E+00 0. -1.
       -2   -1    0    0    0  501  0.00000000000E+00  0.00000000000E+00 -0.22003897935E+02  0.22003897935E+02  0.00000000000E+00 0.  1.
      -24    2    1    2    0    0  0.00000000000E+00  0.00000000000E+00  0.54131101742E+02  0.98138897612E+02  0.81860045496E+02 0.  0.
       11    1    3    3    0    0  0.99594955245E+01 -0.39697420361E+02  0.27588160819E+02  0.49357708130E+02  0.00000000000E+00 0. -1.
      -12    1    3    3    0    0 -0.99594955245E+01  0.39697420361E+02  0.26542940923E+02  0.48781189482E+02  0.00000000000E+00 0.  1.
</event>
<event>
 5   0  0.8936300E+00  0.7868061E+02  0.7957747E-01  0.1331151E+00
        1   -1    0    0  501    0  0.00000000000E+00  0.00000000000E+00  0.22438295352E+02  0.22438295352E+02  0.00000000000E+00 0. -1.
       -2   -1    0    0    0  501  0.00000000000E+00  0.00000000000E+00 -0.68974018784E+02  0.68974018784E+02  0.00000000000E+00 0.  1.
      -24    2    1    2    0    0  0.00000000000E+00  0.00000000000E+00 -0.46535723432E+02  0.91412314136E+02  0.78680605110E+02 0.  0.
       11    1    3    3    0    0  0.25966869534E+02  0.22491365579E+00  0.11066290430E+02  0.28227498710E+02  0.00000000000E+00 0. -1.
      -12    1    3    3    0    0 -0.25966869534E+02 -0.22491365579E+00 -0.57602013861E+02  0.63184815426E+02  0.00000000000E+00 0.  1.
</event>
<event>
 5   0  0.8936300E+00  0.5168842E+02  0.7957747E-01  0.1428649E+00
        1   -1    0    0  501    0  0.00000000000E+00  0.00000000000E+00  0.16437213646E+03  0.16437213646E+03  0.00000000000E+00 0. -1.
       -2   -1    0    0    0  501  0.00000000000E+00  0.00000000000E+00 -0.40634823614E+01  0.40634823614E+01  0.00000000000E+00 0.  1.
      -24    2    1    2    0    0  0.00000000000E+00  0.00000000000E+00  0.16030865410E+03  0.16843561882E+03  0.51688423354E+02 0.  0.
       11    1    3    3    0    0 -0.17220249995E+02  0.17092947355E+02  0.10915786600E+03  0.11182193689E+03  0.00000000000E+00 0. -1.
      -12    1    3    3    0    0  0.17220249995E+02 -0.17092947355E+02  0.51150788093E+02  0.56613681931E+02  0.00000000000E+00 0.  1.
</event>
<event>
 5   0  0.8936300E+00  0.8124702E+02  0.7957747E-01  0.1324247E+00
        1   -1    0    0  501    0  0.00000000000E+00  0.00000000000E+00  0.64337832255E+01  0.64337832255E+01  0.00000000000E+00 0. -1.
       -2   -1    0    0    0  501  0.00000000000E+00  0.00000000000E+00 -0.25650065170E+03  0.25650065170E+03  0.00000000000E+00 0.  1.
      -24    2    1    2    0    0  0.00000000000E+00  0.00000000000E+00 -0.25006686848E+03  0.26293443493E+03  0.81247020628E+02 0.  0.
       11    1    3    3    0    0  0.32937470767E+02  0.23306919237E+02 -0.10979213391E+03  0.11697180059E+03  0.00000000000E+00 0. -1.
      -12    1    3    3    0    0 -0.32937470767E+02 -0.23306919237E+02 -0.14027473457E+03  0.14596263434E+03  0.00000000000E+00 0.  1.
</event>
<event>
 5   0  0.8936300E+00  0.8235723E+02  0.7957747E-01  0.1321349E+00
        1   -1    0    0  501    0  0.00000000000E+00  0.00000000000E+00  0.83731152294E+01  0.83731152294E+01  0.00000000000E+00 0. -1.
       -2   -1    0    0    0  501  0.00000000000E+00  0.00000000000E+00 -0.20251462782E+03  0.20251462782E+03  0.00000000000E+00 0.  1.
      -24    2    1    2    0    0  0.00000000000E+00  0.00000000000E+00 -0.19414151259E+03  0.21088774305E+03  0.82357229540E+02 0.  0.
       11    1    3    3    0    0 -0.26690429787E+02 -0.90001115906E+01 -0.20153385557E+02  0.34634375991E+02  0.00000000000E+00 0. -1.
      -12    1    3    3    0    0  0.26690429787E+02  0.90001115906E+01 -0.17398812703E+03  0.17625336706E+03  0.00000000000E+00 0.  1.
</event>
<event>
 5   0  0.8936300E+00  0.7865383E+02  0.7957747E-01  0.1331224E+00
       -2   -1    0    0    0  501  0.00000000000E+00  0.00000000000E+00  0.60311843624E+02  0.60311843624E+02  0.00000000000E+00 0.  1.
        1   -1    0    0  501    0  0.00000000000E+00  0.00000000000E+00 -0.25643491271E+02  0.25643491271E+02  0.00000000000E+00 0. -1.
      -24    2    1    2    0    0  0.00000000000E+00  0.00000000000E+00  0.34668352352E+02  0.85955334895E+02  0.78653829800E+02 0.  0.
       11    1    3    3    0    0  0.25690103579E+00  0.22005853537E+02 -0.18284108964E+02  0.28611749835E+02  0.00000000000E+00 0. -1.
      -12    1    3    3    0    0 -0.25690103579E+00 -0.22005853537E+02  0.52952461317E+02  0.57343585060E+02  0.00000000000E+00 0.  1.
</event>
<event>
 5   0  0.8936300E+00  0.8060785E+02  0.7957747E-01  0.1325939E+00
        1   -1    0    0  501    0  0.00000000000E+00  0.00000000000E+00  0.12994023110E+03  0.12994023110E+03  0.00000000000E+00 0. -1.
       -2   -1    0    0    0  501  0.00000000000E+00  0.00000000000E+00 -0.12501181044E+02  0.12501181044E+02  0.00000000000E+00 0.  1.
      -24    2    1    2    0    0  0.00000000000E+00  0.00000000000E+00  0.11743905005E+03  0.14244141214E+03  0.80607849588E+02 0.  0.
       11    1    3    3    0    0 -0.10460326622E+02 -0.38553103783E+02  0.68177360581E+02  0.79018432913E+02  0.00000000000E+00 0. -1.
      -12    1    3    3    0    0  0.10460326622E+02  0.38553103783E+02  0.49261689474E+02  0.63422979229E+02  0.00000000000E+00 0.  1.
</event>
<event>
 5   0  0.8936300E+00  0.7824735E+02  0.7957747E-01  0.1332346E+00
        1   -1    0    0  501    0  0.00000000000E+00  0.00000000000E+00  0.24775853102E+02  0.24775853102E+02  0.00000000000E+00 0. -1.
       -2   -1    0    0    0  501  0.00000000000E+00  0.00000000000E+00 -0.61780395701E+02  0.61780395701E+02  0.00000000000E+00 0.  1.
      -24    2    1    2    0    0  0.00000000000E+00  0.00000000000E+00 -0.37004542599E+02  0.86556248803E+02  0.78247351609E+02 0.  0.
       11    1    3    3    0    0  0.18569385439E+02  0.27767265617E+02  0.40275653822E+01  0.33646164690E+02  0.00000000000E+00 0. -1.
      -12    1    3    3    0    0 -0.18569385439E+02 -0.27767265617E+02 -0.41032107981E+02  0.52910084113E+02  0.00000000000E+00 0.  1.
</event>
<event>
 5   0  0.8936300E+00  0.8072798E+02  0.7957747E-01  0.1325620E+00
        1   -1    0    0  501    0  0.00000000000E+00  0.00000000000E+00  0.44046343067E+01  0.44046343067E+01  0.00000000000E+00 0. -1.
       -2   -1    0    0    0  501  0.00000000000E+00  0.00000000000E+00 -0.36989491398E+03  0.36989491398E+03  0.00000000000E+00 0.  1.
      -24    2    1    2    0    0  0.00000000000E+00  0.00000000000E+00 -0.36549027968E+03  0.37429954829E+03  0.80727983451E+02 0.  0.
       11    1    3    3    0    0  0.47993338163E+01  0.40070144328E+02 -0.18634185104E+03  0.19066183551E+03  0.00000000000E+00 0. -1.
      -12    1    3    3    0    0 -0.47993338163E+01 -0.40070144328E+02 -0.17914842864E+03  0.18363771278E+03  0.00000000000E+00 0.  1.
</event>
<event>
 5   0  0.8936300E+00  0.8179604E+02  0.7957747E-01  0.1322807E+00
        1   -1    0    0  501    0  0.00000000000E+00  0.00000000000E+00  0.56256920580E+01  0.56256920580E+01  0.00000000000E+00 0. -1.
       -2   -1    0    0    0  501  0.00000000000E+00  0.00000000000E+00 -0.29732310323E+03  0.29732310323E+03  0.00000000000E+00 0.  1.
      -24    2    1    2    0    0  0.00000000000E+00  0.00000000000E+00 -0.29169741117E+03  0.30294879529E+03  0.81796044415E+02 0.  0.
       11    1    3    3    0    0  0.13646411264E+01 -0.11760419935E+02 -0.86001670578E+00  0.11870524470E+02  0.00000000000E+00 0. -1.
      -12    1    3    3    0    0 -0.13646411264E+01  0.11760419935E+02 -0.29083739446E+03  0.29107827082E+03  0.00000000000E+00 0.  1.
</event>
<event>
 5   0  0.8936300E+00  0.7974608E+02  0.7957747E-01  0.1328249E+00
        1   -1    0    0  501    0  0.00000000000E+00  0.00000000000E+00  0.19702808200E+03  0.19702808200E+03  0.00000000000E+00 0. -1.
       -2   -1    0    0    0  501  0.00000000000E+00  0.00000000000E+00 -0.80692015241E+01  0.80692015241E+01  0.00000000000E+00 0.  1.
      -24    2    1    2    0    0  0.00000000000E+00  0.00000000000E+00  0.18895888048E+03  0.20509728353E+03  0.79746079517E+02 0.  0.
       11    1    3    3    0    0  0.37927084826E+02  0.11108613690E+02  0.10808714545E+03  0.11508560324E+03  0.00000000000E+00 0. -1.
      -12    1    3    3    0    0 -0.37927084826E+02 -0.11108613690E+02  0.80871735024E+02  0.90011680283E+02  0.00000000000E+00 0.  1.
</event>
<event>
 5   0  0.8936300E+00  0.8093356E+02  0.7957747E-01  0.1325074E+00
        3   -1    0    0  501    0  0.00000000000E+00  0.00000000000E+00  0.21418035978E+03  0.21418035978E+03  0.00000000000E+00 0. -1.
       -4   -1    0    0    0  501  0.00000000000E+00  0.00000000000E+00 -0.76457066663E+01  0.76457066663E+01  0.00000000000E+00 0.  1.
      -24    2    1    2    0    0  0.00000000000E+00  0.00000000000E+00  0.20653465312E+03  0.22182606645E+03  0.80933558048E+02 0.  0.
       11    1    3    3    0    0 -0.35680376321E+02  0.16341237470E+02  0.13032193387E+03  0.13610265149E+03  0.00000000000E+00 0. -1.
      -12    1    3    3    0    0  0.35680376321E+02 -0.16341237470E+02  0.76212719251E+02  0.85723414958E+02  0.00000000000E+00 0.  1.
</event>
<event>
 5   0  0.8936300E+00  0.8061082E+02  0.7957747E-01  0.1325931E+00
        1   -1    0    0  501    0  0.00000000000E+00  0.00000000000E+00  0.14272060918E+02  0.14272060918E+02  0.00000000000E+00 0. -1.
       -2   -1    0    0    0  501  0.00000000000E+00  0.00000000000E+00 -0.11382562467E+03  0.11382562467E+03  0.00000000000E+00 0.  1.
      -24    2    1    2    0    0  0.00000000000E+00  0.00000000000E+00 -0.99553563753E+02  0.12809768559E+03  0.80610824319E+02 0.  0.
       11    1    3    3    0    0 -0.34758633648E+02  0.19122666370E+02 -0.61090291722E+02  0.72841353124E+02  0.00000000000E+00 0. -1.
      -12    1    3    3    0    0  0.34758633648E+02 -0.19122666370E+02 -0.38463272031E+02  0.55256332465E+02  0.00000000000E+00 0.  1.
</event>
<event>
 5   0  0.8936300E+00  0.8127245E+02  0.7957747E-01  0.1324180E+00
       -2   -1    0    0    0  501  0.00000000000E+00  0.00000000000E+00  0.15801265815E+02  0.15801265815E+02  0.00000000000E+00 0.  1.
        1   -1    0    0  501    0  0.00000000000E+00  0.00000000000E+00 -0.10450445718E+03  0.10450445718E+03  0.00000000000E+00 0. -1.
      -24    2    1    2    0    0  0.00000000000E+00  0.00000000000E+00 -0.88703191366E+02  0.12030572299E+03  0.81272448141E+02 0.  0.
       11    1    3    3    0    0 -0.79018908467E+01 -0.17142375056E+02 -0.97621035807E+02  0.99429208654E+02  0.00000000000E+00 0. -1.
      -12    1    3    3    0    0  0.79018908467E+01  0.17142375056E+02  0.89178444417E+01  0.20876514340E+02  0.00000000000E+00 0.  1.
</event>
<event>
 5   0  0.8936300E+00  0.8065833E+02  0.7957747E-01  0.1325805E+00
        1   -1    0    0  501    0  0.00000000000E+00  0.00000000000E+00  0.38030208117E+01  0.38030208117E+01  0.00000000000E+00 0. -1.
       -2   -1    0    0    0  501  0.00000000000E+00  0.00000000000E+00 -0.42767098550E+03  0.42767098550E+03  0.00000000000E+00 0.  1.
      -24    2    1    2    0    0  0.00000000000E+00  0.00000000000E+00 -0.42386796469E+03  0.43147400631E+03  0.80658332698E+02 0.  0.
       11    1    3    3    0    0 -0.97212077175E+01  0.47745455005E+01 -0.41219619100E+01  0.11588301610E+02  0.00000000000E+00 0. -1.
      -12    1    3    3    0    0  0.97212077175E+01 -0.47745455005E+01 -0.41974600278E+03  0.41988570470E+03  0.00000000000E+00 0.  1.
</event>
<event>
 5   0  0.8936300E+00  0.7918237E+02  0.7957747E-01  0.1329778E+00
        1   -1    0    0  501    0  0.00000000000E+00  0.00000000000E+00  0.36185398332E+02  0.36185398332E+02  0.00000000000E+00 0. -1.
       -2   -1    0    0    0  501  0.00000000000E+00  0.00000000000E+00 -0.43317524571E+02  0.43317524571E+02  0.00000000000E+00 0.  1.
      -24    2    1    2    0    0  0.00000000000E+00  0.00000000000E+00 -0.71321262385E+01  0.79502922903E+02  0.79182368779E+02 0.  0.
       11    1    3    3    0    0  0.21107401345E+02  0.24024992573E+02  0.19868071958E+02  0.37649209062E+02  0.00000000000E+00 0. -1.
      -12    1    3    3    0    0 -0.21107401345E+02 -0.24024992573E+02 -0.27000198196E+02  0.41853713841E+02  0.00000000000E+00 0.  1.
</event>
<event>
 5   0  0.8936300E+00  0.7974128E+02  0.7957747E-01  0.1328262E+00
       -2   -1    0    0    0  501  0.00000000000E+00  0.00000000000E+00  0.48930497777E+02  0.48930497777E+02  0.00000000000E+00 0.  1.
        1   -1    0    0  501    0  0.00000000000E+00  0.00000000000E+00 -0.32488281421E+02  0.32488281421E+02  0.00000000000E+00 0. -1.
      -24    2    1    2    0    0  0.00000000000E+00  0.00000000000E+00  0.16442216356E+02  0.81418779198E+02  0.79741276184E+02 0.  0.
       11    1    3    3    0    0 -0.15038373591E+01 -0.26597899810E+02 -0.22067015612E+02  0.34592816871E+02  0.00000000000E+00 0. -1.
      -12    1    3    3    0    0  0.15038373591E+01  0.26597899810E+02  0.38509231968E+02  0.46825962327E+02  0.00000000000E+00 0.  1.
</event>
<event>
 5   0  0.8936300E+00  0.8294520E+02  0.7957747E-01  0.1319835E+00
        1   -1    0    0  501    0  0.00000000000E+00  0.00000000000E+00  0.13825114762E+02  0.13825114762E+02  0.00000000000E+00 0. -1.
       -2   -1    0    0    0  501  0.00000000000E+00  0.00000000000E+00 -0.12440956838E+03  0.12440956838E+03  0.00000000000E+00 0.  1.
      -24    2    1    2    0    0  0.00000000000E+00  0.00000000000E+00 -0.11058445362E+03  0.13823468314E+03  0.82945200230E+02 0.  0.
       11    1    3    3    0    0 -0.98788088047E+01 -0.34646077622E+02 -0.21054888261E+02  0.41728286302E+02  0.00000000000E+00 0. -1.
      -12    1    3    3    0    0  0.98788088047E+01  0.34646077622E+02 -0.89529565356E+02  0.96506396839E+02  0.00000000000E+00 0.  1.
</event>
<event>
 5   0  0.8936300E+00  0.8111653E+02  0.7957747E-01  0.1324591E+00
        1   -1    0    0  501    0  0.00000000000E+00  0.00000000000E+00  0.74594636079E+01  0.74594636079E+01  0.00000000000E+00 0. -1.
       -2   -1    0    0    0  501  0.00000000000E+00  0.00000000000E+00 -0.22052161693E+03  0.22052161693E+03  0.00000000000E+00 0.  1.
      -24    2    1    2    0    0  0.00000000000E+00  0.00000000000E+00 -0.21306215332E+03  0.22798108054E+03  0.81116532871E+02 0.  0.
       11    1    3    3    0    0  0.64071343857E+01  0.17016378609E+02 -0.46373767071E+01  0.18764694901E+02  0.00000000000E+00 0. -1.
      -12    1    3    3    0    0 -0.64071343857E+01 -0.17016378609E+02 -0.20842477661E+03  0.20921638563E+03  0.00000000000E+00 0.  1.
</event>
<event>
 5   0  0.8936300E+00  0.7970469E+02  0.7957747E-01  0.1328361E+00
       -2   -1    0    0    0  501  0.00000000000E+00  0.00000000000E+00  0.87459547394E+02  0.87459547394E+02  0.00000000000E+00 0.  1.
        1   -1    0    0  501    0  0.00000000000E+00  0.00000000000E+00 -0.18159361484E+02  0.18159361484E+02  0.00000000000E+00 0. -1.
      -24    2    1    2    0    0  0.00000000000E+00  0.00000000000E+00  0.69300185910E+02  0.10561890888E+03  0.79704693372E+02 0.  0.
       11    1    3    3    0    0  0.21241971541E+02 -0.50262185711E+01 -0.95330420038E+01  0.23819385339E+02  0.00000000000E+00 0. -1.
      -12    1    3    3    0    0 -0.21241971541E+02  0.50262185711E+01  0.78833227913E+02  0.81799523540E+02  0.00000000000E+00 0.  1.
</event>
<event>
 5   0  0.8936300E+00  0.6712068E+02  0.7957747E-01  0.1366418E+00
        1   -1    0    0  501    0  0.00000000000E+00  0.00000000000E+00  0.24705128507E+03  0.24705128507E+03  0.00000000000E+00 0. -1.
       -2   -1    0    0    0  501  0.00000000000E+00  0.00000000000E+00 -0.45589575327E+01  0.45589575327E+01  0.00000000000E+00 0.  1.
      -24    2    1    2    0    0  0.00000000000E+00  0.00000000000E+00  0.24249232753E+03  0.25161024260E+03  0.67120676904E+02 0.  0.
       11    1    3    3    0    0 -0.25254918633E+02 -0.21129757245E+02  0.96946872427E+02  0.10238639377E+03  0.00000000000E+00 0. -1.
      -12    1    3    3    0    0  0.25254918633E+02  0.21129757245E+02  0.14554545511E+03  0.14922384883E+03  0.00000000000E+00 0.  1.
</event>
<event>
 5   0  0.8936300E+00  0.8105696E+02  0.7957747E-01  0.1324748E+00
        1   -1    0    0  501    0  0.00000000000E+00  0.00000000000E+00  0.83769077508E+02  0.83769077508E+02  0.00000000000E+00 0. -1.
       -2   -1    0    0    0  501  0.00000000000E+00  0.00000000000E+00 -0.19608161170E+02  0.19608161170E+02  0.00000000000E+00 0.  1.
      -24    2    1    2    0    0  0.00000000000E+00  0.00000000000E+00  0.64160916338E+02  0.10337723868E+03  0.81056957082E+02 0.  0.
       11    1    3    3    0    0  0.30805051919E+01 -0.39630126175E+02  0.21996102720E+02  0.45429780406E+02  0.00000000000E+00 0. -1.
      -12    1    3    3    0    0 -0.30805051919E+01  0.39630126175E+02  0.42164813617E+02  0.57947458272E+02  0.00000000000E+00 0.  1.
</event>
<event>
 5   0  0.8936300E+00  0.7979454E+02  0.7957747E-01  0.1328118E+00
        1   -1    0    0  501    0  0.00000000000E+00  0.00000000000E+00  0.28701682218E+02  0.28701682218E+02  0.00000000000E+00 0. -1.
       -2   -1    0    0    0  501  0.00000000000E+00  0.00000000000E+00 -0.55459888317E+02  0.55459888317E+02  0.00000000000E+00 0.  1.
      -24    2    1    2    0    0  0.00000000000E+00  0.00000000000E+00 -0.26758206099E+02  0.84161570536E+02  0.79794538418E+02 0.  0.
       11    1    3    3    0    0  0.93215284079E+01  0.29167647244E+02  0.13596998560E+02  0.33504043151E+02  0.00000000000E+00 0. -1.
      -12    1    3    3    0    0 -0.93215284079E+01 -0.29167647244E+02 -0.40355204659E+02  0.50657527384E+02  0.00000000000E+00 0.  1.
</event>
<event>
 5   0  0.8936300E+00  0.7939747E+02  0.7957747E-01  0.1329193E+00
        1   -1    0    0  501    0  0.00000000000E+00  0.00000000000E+00  0.13267056573E+02  0.13267056573E+02  0.00000000000E+00 0. -1.
       -2   -1    0    0    0  501  0.00000000000E+00  0.00000000000E+00 -0.11878968766E+03  0.11878968766E+03  0.00000000000E+00 0.  1.
      -24    2    1    2    0    0  0.00000000000E+00  0.00000000000E+00 -0.10552263109E+03  0.13205674423E+03  0.79397468637E+02 0.  0.
       11    1    3    3    0    0 -0.66199251217E+01 -0.29224424297E+02 -0.94500852322E+01  0.31419651414E+02  0.00000000000E+00 0. -1.
      -12    1    3    3    0    0  0.66199251217E+01  0.29224424297E+02 -0.96072545854E+02  0.10063709282E+03  0.00000000000E+00 0.  1.
</event>
<event>
 5   0  0.8936300E+00  0.8058327E+02  0.7957747E-01  0.1326004E+00
       -2   -1    0    0    0  501  0.00000000000E+00  0.00000000000E+00  0.21501844302E+02  0.21501844302E+02  0.00000000000E+00 0.  1.
        1   -1    0    0  501    0  0.00000000000E+00  0.00000000000E+00 -0.75501245155E+02  0.75501245155E+02  0.00000000000E+00 0. -1.
      -24    2    1    2    0    0  0.00000000000E+00  0.00000000000E+00 -0.53999400853E+02  0.97003089457E+02  0.80583274143E+02 0.  0.
       11    1    3    3    0    0 -0.16860636675E+02 -0.81371782874E+01 -0.69947550707E+02  0.72409630503E+02  0.00000000000E+00 0. -1.
      -12    1    3    3    0    0  0.16860636675E+02  0.81371782874E+01  0.15948149854E+02  0.24593458954E+02  0.00000000000E+00 0.  1.
</event>
<event>
 5   0  0.8936300E+00  0.8107848E+02  0.7957747E-01  0.1324691E+00
       -2   -1    0    0    0  501  0.00000000000E+00  0.00000000000E+00  0.85108229288E+02  0.85108229288E+02  0.00000000000E+00 0.  1.
        1   -1    0    0  501    0  0.00000000000E+00  0.00000000000E+00 -0.19309884318E+02  0.19309884318E+02  0.00000000000E+00 0. -1.
      -24    2    1    2    0    0  0.00000000000E+00  0.00000000000E+00  0.65798344971E+02  0.10441811361E+03  0.81078482029E+02 0.  0.
       11    1    3    3    0    0  0.24555977760E+02 -0.17632763716E+02 -0.18855653626E+01  0.30289697205E+02  0.00000000000E+00 0. -1.
      -12    1    3    3    0    0 -0.24555977760E+02  0.17632763716E+02  0.67683910334E+02  0.74128416401E+02  0.00000000000E+00 0.  1.
</event>
<event>
 5   0  0.8936300E+00  0.7856363E+02  0.7957747E-01  0.1331472E+00
        1   -1    0    0  501    0  0.00000000000E+00  0.00000000000E+00  0.19932525752E+02  0.19932525752E+02  0.00000000000E+00 0. -1.
       -2   -1    0    0    0  501  0.00000000000E+00  0.00000000000E+00 -0.77414223805E+02  0.77414223805E+02  0.00000000000E+00 0.  1.
      -24    2    1    2    0    0  0.00000000000E+00  0.00000000000E+00 -0.57481698052E+02  0.97346749557E+02  0.78563630506E+02 0.  0.
       11    1    3    3    0    0  0.10404986524E+02  0.84618679275E+01  0.17007850415E+02  0.21659499743E+02  0.00000000000E+00 0. -1.
      -12    1    3    3    0    0 -0.10404986524E+02 -0.84618679275E+01 -0.74489548468E+02  0.75687249813E+02  0.00000000000E+00 0.  1.
</event>
<event>
 5   0  0.8936300E+00  0.8623047E+02  0.7957747E-01  0.1311630E+00
       -2   -1    0    0    0  501  0.00000000000E+00  0.00000000000E+00  0.20377397197E+02  0.20377397197E+02  0.00000000000E+00 0.  1.
        1   -1    0    0  501    0  0.00000000000E+00  0.00000000000E+00 -0.91224766736E+02  0.91224766736E+02  0.00000000000E+00 0. -1.
      -24    2    1    2    0    0  0.00000000000E+00  0.00000000000E+00 -0.70847369540E+02  0.11160216393E+03  0.86230465752E+02 0.  0.
       11    1    3    3    0    0 -0.21308268797E+02 -0.29356944126E+02 -0.65583739129E+02  0.74947310330E+02  0.00000000000E+00 0. -1.
      -12    1    3    3    0    0  0.21308268797E+02  0.29356944126E+02 -0.52636304113E+01  0.36654853603E+02  0.00000000000E+00 0.  1.
</event>
<event>
 5   0  0.8936300E+00  0.8101980E+02  0.7957747E-01  0.1324846E+00
        1   -1    0    0  501    0  0.00000000000E+00  0.00000000000E+00  0.14567087708E+02  0.14567087708E+02  0.00000000000E+00 0. -1.
       -2   -1    0    0    0  501  0.00000000000E+00  0.00000000000E+00 -0.11265476988E+03  0.11265476988E+03  0.00000000000E+00 0.  1.
      -24    2    1    2    0    0  0.00000000000E+00  0.00000000000E+00 -0.98087682167E+02  0.12722185758E+03  0.81019797914E+02 0.  0.
       11    1    3    3    0    0  0.38281122168E+01 -0.36475985877E+02 -0.22032695467E+02  0.42785414085E+02  0.00000000000E+00 0. -1.
      -12    1    3    3    0    0 -0.38281122168E+01  0.36475985877E+02 -0.76054986699E+02  0.84436443498E+02  0.00000000000E+00 0.  1.
</event>
<event>
 5   0  0.8936300E+00  0.7588622E+02  0.7957747E-01  0.1339015E+00
        1   -1    0    0  501    0  0.00000000000E+00  0.00000000000E+00  0.18544983147E+02  0.18544983147E+02  0.00000000000E+00 0. -1.
       -2   -1    0    0    0  501  0.00000000000E+00  0.00000000000E+00 -0.77631765567E+02  0.77631765567E+02  0.00000000000E+00 0.  1.
      -24    2    1    2    0    0  0.00000000000E+00  0.00000000000E+00 -0.59086782420E+02  0.96176748715E+02  0.75886224946E+02 0.  0.
       11    1    3    3    0    0  0.14603489692E+02  0.32942346345E+02 -0.14482357869E+02  0.38835535060E+02  0.00000000000E+00 0. -1.
      -12    1    3    3    0    0 -0.14603489692E+02 -0.32942346345E+02 -0.44604424551E+02  0.57341213655E+02  0.00000000000E+00 0.  1.
</event>
<event>
 5   0  0.8936300E+00  0.8224736E+02  0.7957747E-01  0.1321634E+00
        1   -1    0    0  501    0  0.00000000000E+00  0.00000000000E+00  0.22249570786E+02  0.22249570786E+02  0.00000000000E+00 0. -1.
       -2   -1    0    0    0  501  0.00000000000E+00  0.00000000000E+00 -0.76008524336E+02  0.76008524336E+02  0.00000000000E+00 0.  1.
      -24    2    1    2    0    0  0.00000000000E+00  0.00000000000E+00 -0.53758953551E+02  0.98258095122E+02  0.82247359654E+02 0.  0.
       11    1    3    3    0    0 -0.35319458299E+02 -0.12860316345E+02 -0.69494898511E+01  0.38224956249E+02  0.00000000000E+00 0. -1.
      -12    1    3    3    0    0  0.35319458299E+02  0.12860316345E+02 -0.46809463699E+02  0.60033138873E+02  0.00000000000E+00 0.  1.
</event>
<event>
 5   0  0.8936300E+00  0.8030662E+02  0.7957747E-01  0.1326743E+00
        1   -1    0    0  501    0  0.00000000000E+00  0.00000000000E+00  0.86782323460E+01  0.86782323460E+01  0.00000000000E+00 0. -1.
       -2   -1    0    0    0  501  0.00000000000E+00  0.00000000000E+00 -0.18578535723E+03  0.18578535723E+03  0.00000000000E+00 0.  1.
      -24    2    1    2    0    0  0.00000000000E+00  0.00000000000E+00 -0.17710712489E+03  0.19446358958E+03  0.80306624796E+02 0.  0.
       11    1    3    3    0    0 -0.40506057676E+01  0.26040692845E+02 -0.15194749838E+02  0.30420478523E+02  0.00000000000E+00 0. -1.
      -12    1    3    3    0    0  0.40506057676E+01 -0.26040692845E+02 -0.16191237505E+03  0.16404311105E+03  0.00000000000E+00 0.  1.
</event>
<event>
 5   0  0.8936300E+00  0.7942144E+02  0.7957747E-01  0.1329128E+00
        1   -1    0    0  501    0  0.00000000000E+00  0.00000000000E+00  0.24055766253E+02  0.24055766253E+02  0.00000000000E+00 0. -1.
       -2   -1    0    0    0  501  0.00000000000E+00  0.00000000000E+00 -0.65553569476E+02  0.65553569476E+02  0.00000000000E+00 0.  1.
      -24    2    1    2    0    0  0.00000000000E+00  0.00000000000E+00 -0.41497803223E+02  0.89609335729E+02  0.79421441547E+02 0.  0.
       11    1    3    3    0    0 -0.20443714408E+02  0.18702260727E+02  0.11346968444E+02  0.29941170785E+02  0.00000000000E+00 0. -1.
      -12    1    3    3    0    0  0.20443714408E+02 -0.18702260727E+02 -0.52844771668E+02  0.59668164944E+02  0.00000000000E+00 0.  1.
</event>
<event>
 5   0  0.8936300E+00  0.8045241E+02  0.7957747E-01  0.1326353E+00
        1   -1    0    0  501    0  0.00000000000E+00  0.00000000000E+00  0.93784051203E+02  0.93784051203E+02  0.00000000000E+00 0. -1.
       -2   -1    0    0    0  501  0.00000000000E+00  0.00000000000E+00 -0.17253974324E+02  0.17253974324E+02  0.00000000000E+00 0.  1.
      -24    2    1    2    0    0  0.00000000000E+00  0.00000000000E+00  0.76530076880E+02  0.11103802553E+03  0.80452411062E+02 0.  0.
       11    1    3    3    0    0 -0.22576576094E+02  0.23100324668E+02  0.71355201933E+02  0.78325549029E+02  0.00000000000E+00 0. -1.
      -12    1    3    3    0    0  0.22576576094E+02 -0.23100324668E+02  0.51748749474E+01  0.32712476498E+02  0.00000000000E+00 0.  1.
</event>
<event>
 5   0  0.8936300E+00  0.8026046E+02  0.7957747E-01  0.1326866E+00
        1   -1    0    0  501    0  0.00000000000E+00  0.00000000000E+00  0.11711734950E+03  0.11711734950E+03  0.00000000000E+00 0. -1.
       -2   -1    0    0    0  501  0.00000000000E+00  0.00000000000E+00 -0.13750611744E+02  0.13750611744E+02  0.00000000000E+00 0.  1.
      -24    2    1    2    0    0  0.00000000000E+00  0.00000000000E+00  0.10336673775E+03  0.13086796124E+03  0.80260456051E+02 0.  0.
       11    1    3    3    0    0 -0.22011124137E+02 -0.57013133950E+01  0.10560081580E+03  0.10802095564E+03  0.00000000000E+00 0. -1.
      -12    1    3    3    0    0  0.22011124137E+02  0.57013133950E+01 -0.22340780446E+01  0.22847005600E+02  0.00000000000E+00 0.  1.
</event>
<event>
 5   0  0.8936300E+00  0.7952239E+02  0.7957747E-01  0.1328854E+00
        1   -1    0    0  501    0  0.00000000000E+00  0.00000000000E+00  0.71695257706E+02  0.71695257706E+02  0.00000000000E+00 0. -1.
       -2   -1    0    0    0  501  0.00000000000E+00  0.00000000000E+00 -0.22051007304E+02  0.22051007304E+02  0.00000000000E+00 0.  1.
      -24    2    1    2    0    0  0.00000000000E+00  0.00000000000E+00  0.49644250402E+02  0.93746265010E+02  0.79522390591E+02 0.  0.
       11    1    3    3    0    0 -0.13823203090E+02  0.37280168227E+02  0.24531528988E+02  0.46719244441E+02  0.00000000000E+00 0. -1.
      -12    1    3    3    0    0  0.13823203090E+02 -0.37280168227E+02  0.25112721415E+02  0.47027020568E+02  0.00000000000E+00 0.  1.
</event>
<event>
 5   0  0.8936300E+00  0.7924761E+02  0.7957747E-01  0.1329600E+00
        1   -1    0    0  501    0  0.00000000000E+00  0.00000000000E+00  0.38712358467E+02  0.38712358467E+02  0.00000000000E+00 0. -1.
       -2   -1    0    0    0  501  0.00000000000E+00  0.00000000000E+00 -0.40556715073E+02  0.40556715073E+02  0.00000000000E+00 0.  1.
      -24    2    1    2    0    0  0.00000000000E+00  0.00000000000E+00 -0.18443566061E+01  0.79269073539E+02  0.79247614276E+02 0.  0.
       11    1    3    3    0    0 -0.33167502692E+02  0.53897610370E+01  0.20081444081E+02  0.39145844674E+02  0.00000000000E+00 0. -1.
      -12    1    3    3    0    0  0.33167502692E+02 -0.53897610370E+01 -0.21925800687E+02  0.40123228866E+02  0.00000000000E+00 0.  1.
</event>
<event>
 5   0  0.8936300E+00  0.8302746E+02  0.7957747E-01  0.1319625E+00
        1   -1    0    0  501    0  0.00000000000E+00  0.00000000000E+00  0.62622013382E+01  0.62622013382E+01  0.00000000000E+00 0. -1.
       -2   -1    0    0    0  501  0.00000000000E+00  0.00000000000E+00 -0.27520513554E+03  0.27520513554E+03  0.00000000000E+00 0.  1.
      -24    2    1    2    0    0  0.00000000000E+00  0.00000000000E+00 -0.26894293420E+03  0.28146733687E+03  0.83027464565E+02 0.  0.
       11    1    3    3    0    0  0.94394930944E+01  0.37376485962E+02 -0.82251009782E+02  0.90836855642E+02  0.00000000000E+00 0. -1.
      -12    1    3    3    0    0 -0.94394930944E+01 -0.37376485962E+02 -0.18669192442E+03  0.19063048123E+03  0.00000000000E+00 0.  1.
</event>
<event>
 5   0  0.8936300E+00  0.8150218E+02  0.7957747E-01  0.1323576E+00
       -2   -1    0    0    0  501  0.00000000000E+00  0.00000000000E+00  0.57389451828E+02  0.57389451828E+02  0.00000000000E+00 0.  1.
        1   -1    0    0  501    0  0.00000000000E+00  0.00000000000E+00 -0.28936528588E+02  0.28936528588E+02  0.00000000000E+00 0. -1.
      -24    2    1    2    0    0  0.00000000000E+00  0.00000000000E+00  0.28452923240E+02  0.86325980416E+02  0.81502184350E+02 0.  0.
       11    1    3    3    0    0  0.27827784998E+02  0.17927230577E+02 -0.10947437369E+02  0.34865708067E+02  0.00000000000E+00 0. -1.
      -12    1    3    3    0    0 -0.27827784998E+02 -0.17927230577E+02  0.39400360609E+02  0.51460272349E+02  0.00000000000E+00 0.  1.
</event>
<event>
 5   0  0.8936300E+00  0.7969210E+02  0.7957747E-01  0.1328395E+00
        1   -1    0    0  501    0  0.00000000000E+00  0.00000000000E+00  0.12107125951E+02  0.12107125951E+02  0.00000000000E+00 0. -1.
       -2   -1    0    0    0  501  0.00000000000E+00  0.00000000000E+00 -0.13113828022E+03  0.13113828022E+03  0.00000000000E+00 0.  1.
      -24    2    1    2    0    0  0.00000000000E+00  0.00000000000E+00 -0.11903115427E+03  0.14324540617E+03  0.79692099375E+02 0.  0.
       11    1    3    3    0    0 -0.76500486270E+01  0.38933001571E+02 -0.66096883889E+02  0.77091503521E+02  0.00000000000E+00 0. -1.
      -12    1    3    3    0    0  0.76500486270E+01 -0.38933001571E+02 -0.52934270383E+02  0.66153902654E+02  0.00000000000E+00 0.  1.
</event>
<event>
 5   0  0.8936300E+00  0.7960860E+02  0.7957747E-01  0.1328620E+00
        1   -1    0    0  501    0  0.00000000000E+00  0.00000000000E+00  0.59783565113E+01  0.59783565113E+01  0.00000000000E+00 0. -1.
       -2   -1    0    0    0  501  0.00000000000E+00  0.00000000000E+00 -0.26501969349E+03  0.26501969349E+03  0.00000000000E+00 0.  1.
      -24    2    1    2    0    0  0.00000000000E+00  0.00000000000E+00 -0.25904133698E+03  0.27099805000E+03  0.79608597782E+02 0.  0.
       11    1    3    3    0    0  0.18677475352E+02 -0.68372325270E+01 -0.12150399166E+02  0.23307252820E+02  0.00000000000E+00 0. -1.
      -12    1    3    3    0    0 -0.18677475352E+02  0.68372325270E+01 -0.24689093781E+03  0.24769079718E+03  0.00000000000E+00 0.  1.
</event>
<event>
 4   0  0.8936300E+00  0.1365820E+03  0.7957747E-01  0.1221707E+00
        1   -1    0    0  501    0  0.00000000000E+00  0.00000000000E+00  0.50938318926E+02  0.50938318926E+02  0.00000000000E+00 0. -1.
       -2   -1    0    0    0  501  0.00000000000E+00  0.00000000000E+00 -0.91555103112E+02  0.91555103112E+02  0.00000000000E+00 0.  1.
       11    1    1    2    0    0 -0.14224383114E+02 -0.16940159330E+02  0.47097248291E+02  0.52033190077E+02  0.00000000000E+00 0. -1.
      -12    1    1    2    0    0  0.14224383114E+02  0.16940159330E+02 -0.87714032476E+02  0.90460231960E+02  0.00000000000E+00 0.  1.
</event>
<event>
 5   0  0.8936300E+00  0.8006834E+02  0.7957747E-01  0.1327381E+00
        1   -1    0    0  501    0  0.00000000000E+00  0.00000000000E+00  0.12896933162E+02  0.12896933162E+02  0.00000000000E+00 0. -1.
       -2   -1    0    0    0  501  0.00000000000E+00  0.00000000000E+00 -0.12427256139E+03  0.12427256139E+03  0.00000000000E+00 0.  1.
      -24    2    1    2    0    0  0.00000000000E+00  0.00000000000E+00 -0.11137562823E+03  0.13716949455E+03  0.80068343760E+02 0.  0.
       11    1    3    3    0    0  0.15644726446E+02  0.27502155808E+02 -0.13668030492E+02  0.34466521396E+02  0.00000000000E+00 0. -1.
      -12    1    3    3    0    0 -0.15644726446E+02 -0.27502155808E+02 -0.97707597738E+02  0.10270297316E+03  0.00000000000E+00 0.  1.
</event>
<event>
 5   0  0.8936300E+00  0.5782482E+02  0.7957747E-01  0.1401246E+00
        1   -1    0    0  501    0  0.00000000000E+00  0.00000000000E+00  0.33402277534E+01  0.33402277534E+01  0.00000000000E+00 0. -1.
       -2   -1    0    0    0  501  0.00000000000E+00  0.00000000000E+00 -0.25026061176E+03  0.25026061176E+03  0.00000000000E+00 0.  1.
      -24    2    1    2    0    0  0.00000000000E+00  0.00000000000E+00 -0.24692038401E+03  0.25360083952E+03  0.57824819619E+02 0.  0.
       11    1    3    3    0    0  0.19037367087E+02  0.25811807854E+01 -0.28700834932E+02  0.34537251854E+02  0.00000000000E+00 0. -1.
      -12    1    3    3    0    0 -0.19037367087E+02 -0.25811807854E+01 -0.21821954908E+03  0.21906358766E+03  0.00000000000E+00 0.  1.
</event>
<event>
 5   0  0.8936300E+00  0.8072936E+02  0.7957747E-01  0.1325616E+00
        1   -1    0    0  501    0  0.00000000000E+00  0.00000000000E+00  0.12313594114E+03  0.12313594114E+03  0.00000000000E+00 0. -1.
       -2   -1    0    0    0  501  0.00000000000E+00  0.00000000000E+00 -0.13231776373E+02  0.13231776373E+02  0.00000000000E+00 0.  1.
      -24    2    1    2    0    0  0.00000000000E+00  0.00000000000E+00  0.10990416477E+03  0.13636771752E+03  0.80729356165E+02 0.  0.
       11    1    3    3    0    0 -0.30790268328E+02 -0.10195895285E+02  0.95538876432E+02  0.10089436959E+03  0.00000000000E+00 0. -1.
      -12    1    3    3    0    0  0.30790268328E+02  0.10195895285E+02  0.14365288340E+02  0.35473347931E+02  0.00000000000E+00 0.  1.
</event>
<event>
 5   0  0.8936300E+00  0.8047374E+02  0.7957747E-01  0.1326296E+00
        1   -1    0    0  501    0  0.00000000000E+00  0.00000000000E+00  0.13066413827E+02  0.13066413827E+02  0.00000000000E+00 0. -1.
       -2   -1    0    0    0  501  0.00000000000E+00  0.00000000000E+00 -0.12390589926E+03  0.12390589926E+03  0.00000000000E+00 0.  1.
      -24    2    1    2    0    0  0.00000000000E+00  0.00000000000E+00 -0.11083948543E+03  0.13697231309E+03  0.80473741190E+02 0.  0.
       11    1    3    3    0    0  0.11038305488E+02  0.10185167718E+02  0.81163099277E+01  0.17072091738E+02  0.00000000000E+00 0. -1.
      -12    1    3    3    0    0 -0.11038305488E+02 -0.10185167718E+02 -0.11895579536E+03  0.11990022135E+03  0.00000000000E+00 0.  1.
</event>
<event>
 5   0  0.8936300E+00  0.8061135E+02  0.7957747E-01  0.1325930E+00
        1   -1    0    0  501    0  0.00000000000E+00  0.00000000000E+00  0.10252628516E+02  0.10252628516E+02  0.00000000000E+00 0. -1.
       -2   -1    0    0    0  501  0.00000000000E+00  0.00000000000E+00 -0.15845178055E+03  0.15845178055E+03  0.00000000000E+00 0.  1.
      -24    2    1    2    0    0  0.00000000000E+00  0.00000000000E+00 -0.14819915204E+03  0.16870440907E+03  0.80611345197E+02 0.  0.
       11    1    3    3    0    0 -0.14396063261E+02  0.28573089470E+02 -0.22798811539E+02  0.39286815688E+02  0.00000000000E+00 0. -1.
      -12    1    3    3    0    0  0.14396063261E+02 -0.28573089470E+02 -0.12540034050E+03  0.12941759338E+03  0.00000000000E+00 0.  1.
</event>
<event>
 5   0  0.8936300E+00  0.7896803E+02  0.7957747E-01  0.1330363E+00
        1   -1    0    0  501    0  0.00000000000E+00  0.00000000000E+00  0.16512747969E+02  0.16512747969E+02  0.00000000000E+00 0. -1.
       -2   -1    0    0    0  501  0.00000000000E+00  0.00000000000E+00 -0.94411135526E+02  0.94411135526E+02  0.00000000000E+00 0.  1.
      -24    2    1    2    0    0  0.00000000000E+00  0.00000000000E+00 -0.77898387557E+02  0.11092388350E+03  0.78968026098E+02 0.  0.
       11    1    3    3    0    0  0.14291106868E+02 -0.15511869537E+02  0.79367207101E+01  0.22535424728E+02  0.00000000000E+00 0. -1.
      -12    1    3    3    0    0 -0.14291106868E+02  0.15511869537E+02 -0.85835108267E+02  0.88388458768E+02  0.00000000000E+00 0.  1.
</event>
<event>
 5   0  0.8936300E+00  0.8131225E+02  0.7957747E-01  0.1324075E+00
       -4   -1    0    0    0  501  0.00000000000E+00  0.00000000000E+00  0.27201138730E+02  0.27201138730E+02  0.00000000000E+00 0.  1.
        3   -1    0    0  501    0  0.00000000000E+00  0.00000000000E+00 -0.60766589507E+02  0.60766589507E+02  0.00000000000E+00 0. -1.
      -24    2    1    2    0    0  0.00000000000E+00  0.00000000000E+00 -0.33565450778E+02  0.87967728237E+02  0.81312248310E+02 0.  0.
       11    1    3    3    0    0 -0.20459305423E+02 -0.69325686899E+00 -0.54784139642E+02  0.58483892994E+02  0.00000000000E+00 0. -1.
      -12    1    3    3    0    0  0.20459305423E+02  0.69325686899E+00  0.21218688864E+02  0.29483835242E+02  0.00000000000E+00 0.  1.
</event>
<event>
 5   0  0.8936300E+00  0.8346402E+02  0.7957747E-01  0.1318511E+00
        1   -1    0    0  501    0  0.00000000000E+00  0.00000000000E+00  0.34642041774E+01  0.34642041774E+01  0.00000000000E+00 0. -1.
       -2   -1    0    0    0  501  0.00000000000E+00  0.00000000000E+00 -0.50273034207E+03  0.50273034207E+03  0.00000000000E+00 0.  1.
      -24    2    1    2    0    0  0.00000000000E+00  0.00000000000E+00 -0.49926613790E+03  0.50619454625E+03  0.83464017423E+02 0.  0.
       11    1    3    3    0    0  0.20271319930E+02  0.19370021264E+02 -0.62168554325E+02  0.68198631088E+02  0.00000000000E+00 0. -1.
      -12    1    3    3    0    0 -0.20271319930E+02 -0.19370021264E+02 -0.43709758357E+03  0.43799591516E+03  0.00000000000E+00 0.  1.
</event>
<event>
 5   0  0.8936300E+00  0.8531990E+02  0.7957747E-01  0.1313863E+00
        1   -1    0    0  501    0  0.00000000000E+00  0.00000000000E+00  0.26340745657E+02  0.26340745657E+02  0.00000000000E+00 0. -1.
       -2   -1    0    0    0  501  0.00000000000E+00  0.00000000000E+00 -0.69089589124E+02  0.69089589124E+02  0.00000000000E+00 0.  1.
      -24    2    1    2    0    0  0.00000000000E+00  0.00000000000E+00 -0.42748843467E+02  0.95430334781E+02  0.85319899078E+02 0.  0.
       11    1    3    3    0    0 -0.15360717929E+02 -0.20003234415E+02  0.17108983513E+02  0.30476193319E+02  0.00000000000E+00 0. -1.
      -12    1    3    3    0    0  0.15360717929E+02  0.20003234415E+02 -0.59857826979E+02  0.64954141462E+02  0.00000000000E+00 0.  1.
</event>
<event>
 5   0  0.8936300E+00  0.7888130E+02  0.7957747E-01  0.1330600E+00
        1   -1    0    0  501    0  0.00000000000E+00  0.00000000000E+00  0.19886476736E+02  0.19886476736E+02  0.00000000000E+00 0. -1.
       -2   -1    0    0    0  501  0.00000000000E+00  0.00000000000E+00 -0.78222247850E+02  0.78222247850E+02  0.00000000000E+00 0.  1.
      -24    2    1    2    0    0  0.00000000000E+00  0.00000000000E+00 -0.58335771114E+02  0.98108724586E+02  0.78881301006E+02 0.  0.
       11    1    3    3    0    0  0.41990479186E+01  0.29923711212E+02  0.23583142341E+01  0.30308779952E+02  0.00000000000E+00 0. -1.
      -12    1    3    3    0    0 -0.41990479186E+01 -0.29923711212E+02 -0.60694085348E+02  0.67799944634E+02  0.00000000000E+00 0.  1.
</event>
<event>
 5   0  0.8936300E+00  0.8198975E+02  0.7957747E-01  0.1322302E+00
       -2   -1    0    0    0  501  0.00000000000E+00  0.00000000000E+00  0.17627170889E+02  0.17627170889E+02  0.00000000000E+00 0.  1.
        1   -1    0    0  501    0  0.00000000000E+00  0.00000000000E+00 -0.95340294323E+02  0.95340294323E+02  0.00000000000E+00 0. -1.
      -24    2    1    2    0    0  0.00000000000E+00  0.00000000000E+00 -0.77713123434E+02  0.11296746521E+03  0.81989747179E+02 0.  0.
       11    1    3    3    0    0  0.23722990913E+02 -0.26817222361E+02 -0.66366021783E+02  0.75408173034E+02  0.00000000000E+00 0. -1.
      -12    1    3    3    0    0 -0.23722990913E+02  0.26817222361E+02 -0.11347101651E+02  0.37559292178E+02  0.00000000000E+00 0.  1.
</event>
<event>
 5   0  0.8936300E+00  0.8066246E+02  0.7957747E-01  0.1325794E+00
        1   -1    0    0  501    0  0.00000000000E+00  0.00000000000E+00  0.76428557556E+01  0.76428557556E+01  0.00000000000E+00 0. -1.
       -2   -1    0    0    0  501  0.00000000000E+00  0.00000000000E+00 -0.21282725836E+03  0.21282725836E+03  0.00000000000E+00 0.  1.
      -24    2    1    2    0    0  0.00000000000E+00  0.00000000000E+00 -0.20518440260E+03  0.22047011412E+03  0.80662458095E+02 0.  0.
       11    1    3    3    0    0  0.23771174118E+02 -0.26158853433E+02 -0.49504364291E+02  0.60827924638E+02  0.00000000000E+00 0. -1.
      -12    1    3    3    0    0 -0.23771174118E+02  0.26158853433E+02 -0.15568003831E+03  0.15964218948E+03  0.00000000000E+00 0.  1.
</event>
<event>
 5   0  0.8936300E+00  0.7697386E+02  0.7957747E-01  0.1335909E+00
        1   -1    0    0  501    0  0.00000000000E+00  0.00000000000E+00  0.17119311855E+02  0.17119311855E+02  0.00000000000E+00 0. -1.
       -2   -1    0    0    0  501  0.00000000000E+00  0.00000000000E+00 -0.86524722303E+02  0.86524722303E+02  0.00000000000E+00 0.  1.
      -24    2    1    2    0    0  0.00000000000E+00  0.00000000000E+00 -0.69405410448E+02  0.10364403416E+03  0.76973858011E+02 0.  0.
       11    1    3    3    0    0 -0.63983905763E+01 -0.35635235532E+02 -0.17124297100E+02  0.40050605046E+02  0.00000000000E+00 0. -1.
      -12    1    3    3    0    0  0.63983905763E+01  0.35635235532E+02 -0.52281113348E+02  0.63593429113E+02  0.00000000000E+00 0.  1.
</event>
<event>
 5   0  0.8936300E+00  0.8689346E+02  0.7957747E-01  0.1310025E+00
        1   -1    0    0  501    0  0.00000000000E+00  0.00000000000E+00  0.13386173796E+03  0.13386173796E+03  0.00000000000E+00 0. -1.
       -2   -1    0    0    0  501  0.00000000000E+00  0.00000000000E+00 -0.14101252998E+02  0.14101252998E+02  0.00000000000E+00 0.  1.
      -24    2    1    2    0    0  0.00000000000E+00  0.00000000000E+00  0.11976048496E+03  0.14796299096E+03  0.86893457375E+02 0.  0.
       11    1    3    3    0    0 -0.16904092155E+01 -0.43383690837E+02  0.62634438367E+02  0.76210727484E+02  0.00000000000E+00 0. -1.
      -12    1    3    3    0    0  0.16904092155E+01  0.43383690837E+02  0.57126046593E+02  0.71752263472E+02  0.00000000000E+00 0.  1.
</event>
<event>
 5   0  0.8936300E+00  0.7949163E+02  0.7957747E-01  0.1328937E+00
       -4   -1    0    0    0  501  0.00000000000E+00  0.00000000000E+00  0.71691743354E+01  0.71691743354E+01  0.00000000000E+00 0.  1.
        3   -1    0    0  501    0  0.00000000000E+00  0.00000000000E+00 -0.22035032508E+03  0.22035032508E+03  0.00000000000E+00 0. -1.
      -24    2    1    2    0    0  0.00000000000E+00  0.00000000000E+00 -0.21318115075E+03  0.22751949942E+03  0.79491632148E+02 0.  0.
       11    1    3    3    0    0  0.28705136742E+02  0.22245202826E+02 -0.15282132077E+03  0.15707701934E+03  0.00000000000E+00 0. -1.
      -12    1    3    3    0    0 -0.28705136742E+02 -0.22245202826E+02 -0.60359829984E+02  0.70442480080E+02  0.00000000000E+00 0.  1.
</event>
<event>
 5   0  0.8936300E+00  0.9089511E+02  0.7957747E-01  0.1300664E+00
        1   -1    0    0  501    0  0.00000000000E+00  0.00000000000E+00  0.15712900141E+02  0.15712900141E+02  0.00000000000E+00 0. -1.
       -2   -1    0    0    0  501  0.00000000000E+00  0.00000000000E+00 -0.13145125629E+03  0.13145125629E+03  0.00000000000E+00 0.  1.
      -24    2    1    2    0    0  0.00000000000E+00  0.00000000000E+00 -0.11573835614E+03  0.14716415643E+03  0.90895114576E+02 0.  0.
       11    1    3    3    0    0  0.89611555937E+01  0.38823818396E+02 -0.22475544715E+02  0.45746489424E+02  0.00000000000E+00 0. -1.
      -12    1    3    3    0    0 -0.89611555937E+01 -0.38823818396E+02 -0.93262811430E+02  0.10141766700E+03  0.00000000000E+00 0.  1.
</event>
<event>
 5   0  0.8936300E+00  0.8161366E+02  0.7957747E-01  0.1323284E+00
        1   -1    0    0  501    0  0.00000000000E+00  0.00000000000E+00  0.30495690747E+02  0.30495690747E+02  0.00000000000E+00 0. -1.
       -2   -1    0    0    0  501  0.00000000000E+00  0.00000000000E+00 -0.54604352432E+02  0.54604352432E+02  0.00000000000E+00 0.  1.
      -24    2    1    2    0    0  0.00000000000E+00  0.00000000000E+00 -0.24108661685E+02  0.85100043180E+02  0.81613661730E+02 0.  0.
       11    1    3    3    0    0 -0.28700101920E+02  0.16295722367E+02  0.12969839953E+02  0.35460727095E+02  0.00000000000E+00 0. -1.
      -12    1    3    3    0    0  0.28700101920E+02 -0.16295722367E+02 -0.37078501638E+02  0.49639316085E+02  0.00000000000E+00 0.  1.
</event>
<event>
 5   0  0.8936300E+00  0.8060658E+02  0.7957747E-01  0.1325942E+00
        1   -1    0    0  501    0  0.00000000000E+00  0.00000000000E+00  0.95466434564E+02  0.95466434564E+02  0.00000000000E+00 0. -1.
       -2   -1    0    0    0  501  0.00000000000E+00  0.00000000000E+00 -0.17014933271E+02  0.17014933271E+02  0.00000000000E+00 0.  1.
      -24    2    1    2    0    0  0.00000000000E+00  0.00000000000E+00  0.78451501293E+02  0.11248136783E+03  0.80606575754E+02 0.  0.
       11    1    3    3    0    0  0.22449620364E+02 -0.69109541095E+01  0.84927275183E+02  0.88115769368E+02  0.00000000000E+00 0. -1.
      -12    1    3    3    0    0 -0.22449620364E+02  0.69109541095E+01 -0.64757738900E+01  0.24365598467E+02  0.00000000000E+00 0.  1.
</event>
<event>
 5   0  0.8936300E+00  0.7905756E+02  0.7957747E-01  0.1330118E+00
        1   -1    0    0  501    0  0.00000000000E+00  0.00000000000E+00  0.39205121475E+01  0.39205121475E+01  0.00000000000E+00 0. -1.
       -2   -1    0    0    0  501  0.00000000000E+00  0.00000000000E+00 -0.39855111218E+03  0.39855111218E+03  0.00000000000E+00 0.  1.
      -24    2    1    2    0    0  0.00000000000E+00  0.00000000000E+00 -0.39463060003E+03  0.40247162432E+03  0.79057560718E+02 0.  0.
       11    1    3    3    0    0  0.36216858214E+02  0.15727305209E+01 -0.11708118545E+03  0.12256483300E+03  0.00000000000E+00 0. -1.
      -12    1    3    3    0    0 -0.36216858214E+02 -0.15727305209E+01 -0.27754941458E+03  0.27990679133E+03  0.00000000000E+00 0.  1.
</event>
<event>
 5   0  0.8936300E+00  0.6834960E+02  0.7957747E-01  0.1362297E+00
        1   -1    0    0  501    0  0.00000000000E+00  0.00000000000E+00  0.17191862492E+02  0.17191862492E+02  0.00000000000E+00 0. -1.
       -2   -1    0    0    0  501  0.00000000000E+00  0.00000000000E+00 -0.67934298372E+02  0.67934298372E+02  0.00000000000E+00 0.  1.
      -24    2    1    2    0    0  0.00000000000E+00  0.00000000000E+00 -0.50742435880E+02  0.85126160864E+02  0.68349604712E+02 0.  0.
       11    1    3    3    0    0  0.19112281774E+02 -0.22569193150E+02 -0.40427157555E+01  0.29849478132E+02  0.00000000000E+00 0. -1.
      -12    1    3    3    0    0 -0.19112281774E+02  0.22569193150E+02 -0.46699720125E+02  0.55276682732E+02  0.00000000000E+00 0.  1.
</event>
<event>
 5   0  0.8936300E+00  0.7930139E+02  0.7957747E-01  0.1329454E+00
        1   -1    0    0  501    0  0.00000000000E+00  0.00000000000E+00  0.20395331778E+02  0.20395331778E+02  0.00000000000E+00 0. -1.
       -2   -1    0    0    0  501  0.00000000000E+00  0.00000000000E+00 -0.77085161387E+02  0.77085161387E+02  0.00000000000E+00 0.  1.
      -24    2    1    2    0    0  0.00000000000E+00  0.00000000000E+00 -0.56689829609E+02  0.97480493165E+02  0.79301385653E+02 0.  0.
       11    1    3    3    0    0 -0.12094050869E+02 -0.17467395527E+02  0.12808065033E+02  0.24807710552E+02  0.00000000000E+00 0. -1.
      -12    1    3    3    0    0  0.12094050869E+02  0.17467395527E+02 -0.69497894642E+02  0.72672782613E+02  0.00000000000E+00 0.  1.
</event>
<event>
 5   0  0.8936300E+00  0.7997197E+02  0.7957747E-01  0.1327640E+00
        1   -1    0    0  501    0  0.00000000000E+00  0.00000000000E+00  0.68934590070E+01  0.68934590070E+01  0.00000000000E+00 0. -1.
       -2   -1    0    0    0  501  0.00000000000E+00  0.00000000000E+00 -0.23194148453E+03  0.23194148453E+03  0.00000000000E+00 0.  1.
      -24    2    1    2    0    0  0.00000000000E+00  0.00000000000E+00 -0.22504802552E+03  0.23883494354E+03  0.79971972981E+02 0.  0.
       11    1    3    3    0    0 -0.70394308441E+01  0.33771030738E+02 -0.52137722957E+02  0.62517023752E+02  0.00000000000E+00 0. -1.
      -12    1    3    3    0    0  0.70394308441E+01 -0.33771030738E+02 -0.17291030257E+03  0.17631791978E+03  0.00000000000E+00 0.  1.
</event>
<event>
 5   0  0.8936300E+00  0.8214698E+02  0.7957747E-01  0.1321894E+00
        1   -1    0    0  501    0  0.00000000000E+00  0.00000000000E+00  0.99819957852E+02  0.99819957852E+02  0.00000000000E+00 0. -1.
       -2   -1    0    0    0  501  0.00000000000E+00  0.00000000000E+00 -0.16900745247E+02  0.16900745247E+02  0.00000000000E+00 0.  1.
      -24    2    1    2    0    0  0.00000000000E+00  0.00000000000E+00  0.82919212604E+02  0.11672070310E+03  0.82146982373E+02 0.  0.
       11    1    3    3    0    0 -0.33071607672E+02  0.15574125708E+02  0.14849090321E+02  0.39456052881E+02  0.00000000000E+00 0. -1.
      -12    1    3    3    0    0  0.33071607672E+02 -0.15574125708E+02  0.68070122284E+02  0.77264650218E+02  0.00000000000E+00 0.  1.
</event>
<event>
 5   0  0.8936300E+00  0.7473691E+02  0.7957747E-01  0.1342363E+00
        1   -1    0    0  501    0  0.00000000000E+00  0.00000000000E+00  0.10673351196E+02  0.10673351196E+02  0.00000000000E+00 0. -1.
       -2   -1    0    0    0  501  0.00000000000E+00  0.00000000000E+00 -0.13083066202E+03  0.13083066202E+03  0.00000000000E+00 0.  1.
      -24    2    1    2    0    0  0.00000000000E+00  0.00000000000E+00 -0.12015731083E+03  0.14150401322E+03  0.74736914652E+02 0.  0.
       11    1    3    3    0    0 -0.89160554863E+00  0.35975906497E+02 -0.41018530443E+02  0.54567212211E+02  0.00000000000E+00 0. -1.
      -12    1    3    3    0    0  0.89160554863E+00 -0.35975906497E+02 -0.79138780385E+02  0.86936801008E+02  0.00000000000E+00 0.  1.
</event>
<event>
 5   0  0.8936300E+00  0.8360598E+02  0.7957747E-01  0.1318151E+00
        1   -1    0    0  501    0  0.00000000000E+00  0.00000000000E+00  0.57843296626E+02  0.57843296626E+02  0.00000000000E+00 0. -1.
       -2   -1    0    0    0  501  0.00000000000E+00  0.00000000000E+00 -0.30210759786E+02  0.30210759786E+02  0.00000000000E+00 0.  1.
      -24    2    1    2    0    0  0.00000000000E+00  0.00000000000E+00  0.27632536840E+02  0.88054056412E+02  0.83605979202E+02 0.  0.
       11    1    3    3    0    0  0.16426928724E+02  0.37944937293E+02  0.20293910059E+02  0.46059798512E+02  0.00000000000E+00 0. -1.
      -12    1    3    3    0    0 -0.16426928724E+02 -0.37944937293E+02  0.73386267810E+01  0.41994257900E+02  0.00000000000E+00 0.  1.
</event>
<event>
 5   0  0.8936300E+00  0.8095041E+02  0.7957747E-01  0.1325030E+00
        1   -1    0    0  501    0  0.00000000000E+00  0.00000000000E+00  0.13605903862E+02  0.13605903862E+02  0.00000000000E+00 0. -1.
       -2   -1    0    0    0  501  0.00000000000E+00  0.00000000000E+00 -0.12040670371E+03  0.12040670371E+03  0.00000000000E+00 0.  1.
      -24    2    1    2    0    0  0.00000000000E+00  0.00000000000E+00 -0.10680079985E+03  0.13401260757E+03  0.80950405435E+02 0.  0.
       11    1    3    3    0    0  0.35813554700E+02 -0.88700851601E+01 -0.25849892202E+02  0.45050039266E+02  0.00000000000E+00 0. -1.
      -12    1    3    3    0    0 -0.35813554700E+02  0.88700851601E+01 -0.80950907644E+02  0.88962568304E+02  0.00000000000E+00 0.  1.
</event>
<event>
 5   0  0.8936300E+00  0.7972485E+02  0.7957747E-01  0.1328306E+00
        1   -1    0    0  501    0  0.00000000000E+00  0.00000000000E+00  0.29507449688E+02  0.29507449688E+02  0.00000000000E+00 0. -1.
       -2   -1    0    0    0  501  0.00000000000E+00  0.00000000000E+00 -0.53851243612E+02  0.53851243612E+02  0.00000000000E+00 0.  1.
      -24    2    1    2    0    0  0.00000000000E+00  0.00000000000E+00 -0.24343793924E+02  0.83358693300E+02  0.79724848360E+02 0.  0.
       11    1    3    3    0    0  0.38040907053E+02  0.65396044342E+01 -0.22582419071E+02  0.44719600700E+02  0.00000000000E+00 0. -1.
      -12    1    3    3    0    0 -0.38040907053E+02 -0.65396044342E+01 -0.17613748526E+01  0.38639092600E+02  0.00000000000E+00 0.  1.
</event>
<event>
 5   0  0.8936300E+00  0.8195548E+02  0.7957747E-01  0.1322392E+00
        1   -1    0    0  501    0  0.00000000000E+00  0.00000000000E+00  0.56862203268E+02  0.56862203268E+02  0.00000000000E+00 0. -1.
       -2   -1    0    0    0  501  0.00000000000E+00  0.00000000000E+00 -0.29530606797E+02  0.29530606797E+02  0.00000000000E+00 0.  1.
      -24    2    1    2    0    0  0.00000000000E+00  0.00000000000E+00  0.27331596471E+02  0.86392810064E+02  0.81955484656E+02 0.  0.
       11    1    3    3    0    0 -0.27428509215E+02 -0.96483147077E+01  0.44104119536E+02  0.52826001690E+02  0.00000000000E+00 0. -1.
      -12    1    3    3    0    0  0.27428509215E+02  0.96483147077E+01 -0.16772523065E+02  0.33566808374E+02  0.00000000000E+00 0.  1.
</event>
<event>
 5   0  0.8936300E+00  0.7813708E+02  0.7957747E-01  0.1332651E+00
        1   -1    0    0  501    0  0.00000000000E+00  0.00000000000E+00  0.10984380529E+02  0.10984380529E+02  0.00000000000E+00 0. -1.
       -2   -1    0    0    0  501  0.00000000000E+00  0.00000000000E+00 -0.13895647873E+03  0.13895647873E+03  0.00000000000E+00 0.  1.
      -24    2    1    2    0    0  0.00000000000E+00  0.00000000000E+00 -0.12797209820E+03  0.14994085926E+03  0.78137080555E+02 0.  0.
       11    1    3    3    0    0 -0.36333452924E+02 -0.86016063926E+01 -0.41918717202E+02  0.56136318777E+02  0.00000000000E+00 0. -1.
      -12    1    3    3    0    0  0.36333452924E+02  0.86016063926E+01 -0.86053380998E+02  0.93804540482E+02  0.00000000000E+00 0.  1.
</event>
<event>
 5   0  0.8936300E+00  0.8142540E+02  0.7957747E-01  0.1323778E+00
        1   -1    0    0  501    0  0.00000000000E+00  0.00000000000E+00  0.24858982889E+03  0.24858982889E+03  0.00000000000E+00 0. -1.
       -2   -1    0    0    0  501  0.00000000000E+00  0.00000000000E+00 -0.66677068436E+01  0.66677068436E+01  0.00000000000E+00 0.  1.
      -24    2    1    2    0    0  0.00000000000E+00  0.00000000000E+00  0.24192212204E+03  0.25525753573E+03  0.81425403979E+02 0.  0.
       11    1    3    3    0    0  0.38161296661E+02  0.12331785043E+02  0.14294238355E+03  0.14846172066E+03  0.00000000000E+00 0. -1.
      -12    1    3    3    0    0 -0.38161296661E+02 -0.12331785043E+02  0.98979738488E+02  0.10679581507E+03  0.00000000000E+00 0.  1.
</event>
<event>
 5   0  0.8936300E+00  0.8056323E+02  0.7957747E-01  0.1326058E+00
        1   -1    0    0  501    0  0.00000000000E+00  0.00000000000E+00  0.15360508568E+02  0.15360508568E+02  0.00000000000E+00 0. -1.
       -2   -1    0    0    0  501  0.00000000000E+00  0.00000000000E+00 -0.10563508808E+03  0.10563508808E+03  0.00000000000E+00 0.  1.
      -24    2    1    2    0    0  0.00000000000E+00  0.00000000000E+00 -0.90274579513E+02  0.12099559665E+03  0.80563234183E+02 0.  0.
       11    1    3    3    0    0  0.23735526278E+02 -0.19722768677E+02 -0.62551869554E+01  0.31487936989E+02  0.00000000000E+00 0. -1.
      -12    1    3    3    0    0 -0.23735526278E+02  0.19722768677E+02 -0.84019392557E+02  0.89507659659E+02  0.00000000000E+00 0.  1.
</event>
<event>
 5   0  0.8936300E+00  0.7928237E+02  0.7957747E-01  0.1329505E+00
        1   -1    0    0  501    0  0.00000000000E+00  0.00000000000E+00  0.22002211099E+03  0.22002211099E+03  0.00000000000E+00 0. -1.
       -2   -1    0    0    0  501  0.00000000000E+00  0.00000000000E+00 -0.71421167016E+01  0.71421167016E+01  0.00000000000E+00 0.  1.
      -24    2    1    2    0    0  0.00000000000E+00  0.00000000000E+00  0.21287999429E+03  0.22716422769E+03  0.79282371146E+02 0.  0.
       11    1    3    3    0    0  0.14516512621E+02 -0.34128224129E+02  0.14654935118E+03  0.15116936579E+03  0.00000000000E+00 0. -1.
      -12    1    3    3    0    0 -0.14516512621E+02  0.34128224129E+02  0.66330643108E+02  0.75994861906E+02  0.00000000000E+00 0.  1.
</event>
<event>
 5   0  0.8936300E+00  0.8116699E+02  0.7957747E-01  0.1324458E+00
        1   -1    0    0  501    0  0.00000000000E+00  0.00000000000E+00  0.39494953971E+02  0.39494953971E+02  0.00000000000E+00 0. -1.
       -2   -1    0    0    0  501  0.00000000000E+00  0.00000000000E+00 -0.41702033372E+02  0.41702033372E+02  0.00000000000E+00 0.  1.
      -24    2    1    2    0    0  0.00000000000E+00  0.00000000000E+00 -0.22070794012E+01  0.81196987344E+02  0.81166985617E+02 0.  0.
       11    1    3    3    0    0  0.40308272255E+02  0.18771072824E+01  0.32269799585E+01  0.40480782399E+02  0.00000000000E+00 0. -1.
      -12    1    3    3    0    0 -0.40308272255E+02 -0.18771072824E+01 -0.54340593597E+01  0.40716204945E+02  0.00000000000E+00 0.  1.
</event>
<event>
 5   0  0.8936300E+00  0.7747225E+02  0.7957747E-01  0.1334505E+00
        1   -1    0    0  501    0  0.00000000000E+00  0.00000000000E+00  0.27694887730E+02  0.27694887730E+02  0.00000000000E+00 0. -1.
       -2   -1    0    0    0  501  0.00000000000E+00  0.00000000000E+00 -0.54179222522E+02  0.54179222522E+02  0.00000000000E+00 0.  1.
      -24    2    1    2    0    0  0.00000000000E+00  0.00000000000E+00 -0.26484334793E+02  0.81874110252E+02  0.77472252711E+02 0.  0.
       11    1    3    3    0    0 -0.35052458112E+02  0.15298577397E+02 -0.67475731368E+01  0.38836207762E+02  0.00000000000E+00 0. -1.
      -12    1    3    3    0    0  0.35052458112E+02 -0.15298577397E+02 -0.19736761656E+02  0.43037902490E+02  0.00000000000E+00 0.  1.
</event>
<event>
 5   0  0.8936300E+00  0.8093069E+02  0.7957747E-01  0.1325082E+00
        1   -1    0    0  501    0  0.00000000000E+00  0.00000000000E+00  0.10086471954E+03  0.10086471954E+03  0.00000000000E+00 0. -1.
       -2   -1    0    0    0  501  0.00000000000E+00  0.00000000000E+00 -0.16234063118E+02  0.16234063118E+02  0.00000000000E+00 0.  1.
      -24    2    1    2    0    0  0.00000000000E+00  0.00000000000E+00  0.84630656418E+02  0.11709878265E+03  0.80930691912E+02 0.  0.
       11    1    3    3    0    0 -0.40664553064E+01  0.23082860600E+02  0.90043135081E+02  0.93043649367E+02  0.00000000000E+00 0. -1.
      -12    1    3    3    0    0  0.40664553064E+01 -0.23082860600E+02 -0.54124786627E+01  0.24055133288E+02  0.00000000000E+00 0.  1.
</event>
<event>
 5   0  0.8936300E+00  0.5959674E+02  0.7957747E-01  0.1394052E+00
        1   -1    0    0  501    0  0.00000000000E+00  0.00000000000E+00  0.63598128558E+02  0.63598128558E+02  0.00000000000E+00 0. -1.
       -2   -1    0    0    0  501  0.00000000000E+00  0.00000000000E+00 -0.13961774308E+02  0.13961774308E+02  0.00000000000E+00 0.  1.
      -24    2    1    2    0    0  0.00000000000E+00  0.00000000000E+00  0.49636354249E+02  0.77559902866E+02  0.59596735392E+02 0.  0.
       11    1    3    3    0    0 -0.25596401822E+02  0.34560488537E+01  0.44157292397E+02  0.51156490612E+02  0.00000000000E+00 0. -1.
      -12    1    3    3    0    0  0.25596401822E+02 -0.34560488537E+01  0.54790618527E+01  0.26403412254E+02  0.00000000000E+00 0.  1.
</event>
<event>
 5   0  0.8936300E+00  0.8131480E+02  0.7957747E-01  0.1324068E+00
        1   -1    0    0  501    0  0.00000000000E+00  0.00000000000E+00  0.11020632626E+03  0.11020632626E+03  0.00000000000E+00 0. -1.
       -2   -1    0    0    0  501  0.00000000000E+00  0.00000000000E+00 -0.14999356793E+02  0.14999356793E+02  0.00000000000E+00 0.  1.
      -24    2    1    2    0    0  0.00000000000E+00  0.00000000000E+00  0.95206969471E+02  0.12520568306E+03  0.81314795910E+02 0.  0.
       11    1    3    3    0    0 -0.28901749261E+02 -0.62324145580E+00  0.91623654778E+02  0.96075978554E+02  0.00000000000E+00 0. -1.
      -12    1    3    3    0    0  0.28901749261E+02  0.62324145580E+00  0.35833146931E+01  0.29129704503E+02  0.00000000000E+00 0.  1.
</event>
<event>
 5   0  0.8936300E+00  0.8171206E+02  0.7957747E-01  0.1323027E+00
        1   -1    0    0  501    0  0.00000000000E+00  0.00000000000E+00  0.42098728324E+02  0.42098728324E+02  0.00000000000E+00 0. -1.
       -2   -1    0    0    0  501  0.00000000000E+00  0.00000000000E+00 -0.39650018907E+02  0.39650018907E+02  0.00000000000E+00 0.  1.
      -24    2    1    2    0    0  0.00000000000E+00  0.00000000000E+00  0.24487094175E+01  0.81748747231E+02  0.81712064568E+02 0.  0.
       11    1    3    3    0    0  0.36260962064E+02 -0.14992333254E+02 -0.10164425942E+02  0.40533233043E+02  0.00000000000E+00 0. -1.
      -12    1    3    3    0    0 -0.36260962064E+02  0.14992333254E+02  0.12613135359E+02  0.41215514188E+02  0.00000000000E+00 0.  1.
</event>
<event>
 5   0  0.8936300E+00  0.7870930E+02  0.7957747E-01  0.1331072E+00
        1   -1    0    0  501    0  0.00000000000E+00  0.00000000000E+00  0.58724545149E+02  0.58724545149E+02  0.00000000000E+00 0. -1.
       -2   -1    0    0    0  501  0.00000000000E+00  0.00000000000E+00 -0.26373784428E+02  0.26373784428E+02  0.00000000000E+00 0.  1.
      -24    2    1    2    0    0  0.00000000000E+00  0.00000000000E+00  0.32350760721E+02  0.85098329577E+02  0.78709300452E+02 0.  0.
       11    1    3    3    0    0 -0.33325875685E+02 -0.10987395062E+02 -0.30880567693E+01  0.35226026387E+02  0.00000000000E+00 0. -1.
      -12    1    3    3    0    0  0.33325875685E+02  0.10987395062E+02  0.35438817490E+02  0.49872303190E+02  0.00000000000E+00 0.  1.
</event>
<event>
 5   0  0.8936300E+00  0.7871190E+02  0.7957747E-01  0.1331065E+00
        1   -1    0    0  501    0  0.00000000000E+00  0.00000000000E+00  0.62729516405E+02  0.62729516405E+02  0.00000000000E+00 0. -1.
       -2   -1    0    0    0  501  0.00000000000E+00  0.00000000000E+00 -0.24691578250E+02  0.24691578250E+02  0.00000000000E+00 0.  1.
      -24    2    1    2    0    0  0.00000000000E+00  0.00000000000E+00  0.38037938155E+02  0.87421094655E+02  0.78711899047E+02 0.  0.
       11    1    3    3    0    0 -0.36413027578E+02 -0.88247269510E+01  0.32397828893E+02  0.49531845314E+02  0.00000000000E+00 0. -1.
      -12    1    3    3    0    0  0.36413027578E+02  0.88247269510E+01  0.56401092618E+01  0.37889249342E+02  0.00000000000E+00 0.  1.
</event>
<event>
 5   0  0.8936300E+00  0.7462407E+02  0.7957747E-01  0.1342695E+00
        1   -1    0    0  501    0  0.00000000000E+00  0.00000000000E+00  0.14903715660E+02  0.14903715660E+02  0.00000000000E+00 0. -1.
       -2   -1    0    0    0  501  0.00000000000E+00  0.00000000000E+00 -0.93412137565E+02  0.93412137565E+02  0.00000000000E+00 0.  1.
      -24    2    1    2    0    0  0.00000000000E+00  0.00000000000E+00 -0.78508421905E+02  0.10831585323E+03  0.74624069508E+02 0.  0.
       11    1    3    3    0    0  0.83490565409E+01  0.32177761870E+02 -0.14661344918E+02  0.36332769491E+02  0.00000000000E+00 0. -1.
      -12    1    3    3    0    0 -0.83490565409E+01 -0.32177761870E+02 -0.63847076987E+02  0.71983083734E+02  0.00000000000E+00 0.  1.
</event>
<event>
 5   0  0.8936300E+00  0.8089831E+02  0.7957747E-01  0.1325168E+00
        1   -1    0    0  501    0  0.00000000000E+00  0.00000000000E+00  0.74784546957E+02  0.74784546957E+02  0.00000000000E+00 0. -1.
       -2   -1    0    0    0  501  0.00000000000E+00  0.00000000000E+00 -0.21877968229E+02  0.21877968229E+02  0.00000000000E+00 0.  1.
      -24    2    1    2    0    0  0.00000000000E+00  0.00000000000E+00  0.52906578728E+02  0.96662515187E+02  0.80898305109E+02 0.  0.
       11    1    3    3    0    0 -0.73822763579E+01  0.36786041589E+02  0.44512079973E+02  0.58215428569E+02  0.00000000000E+00 0. -1.
      -12    1    3    3    0    0  0.73822763579E+01 -0.36786041589E+02  0.83944987553E+01  0.38447086617E+02  0.00000000000E+00 0.  1.
</event>
<event>
 5   0  0.8936300E+00  0.8001283E+02  0.7957747E-01  0.1327530E+00
        1   -1    0    0  501    0  0.00000000000E+00  0.00000000000E+00  0.69230082679E+01  0.69230082679E+01  0.00000000000E+00 0. -1.
       -2   -1    0    0    0  501  0.00000000000E+00  0.00000000000E+00 -0.23118753654E+03  0.23118753654E+03  0.00000000000E+00 0.  1.
      -24    2    1    2    0    0  0.00000000000E+00  0.00000000000E+00 -0.22426452827E+03  0.23811054481E+03  0.80012829644E+02 0.  0.
       11    1    3    3    0    0  0.78887756059E-01  0.39992188604E+02 -0.11529828859E+03  0.12203719402E+03  0.00000000000E+00 0. -1.
      -12    1    3    3    0    0 -0.78887756059E-01 -0.39992188604E+02 -0.10896623968E+03  0.11607335079E+03  0.00000000000E+00 0.  1.
</event>
<event>
 5   0  0.8936300E+00  0.7976312E+02  0.7957747E-01  0.1328203E+00
        1   -1    0    0  501    0  0.00000000000E+00  0.00000000000E+00  0.32107392312E+02  0.32107392312E+02  0.00000000000E+00 0. -1.
       -2   -1    0    0    0  501  0.00000000000E+00  0.00000000000E+00 -0.49538084659E+02  0.49538084659E+02  0.00000000000E+00 0.  1.
      -24    2    1    2    0    0  0.00000000000E+00  0.00000000000E+00 -0.17430692347E+02  0.81645476971E+02  0.79763117254E+02 0.  0.
       11    1    3    3    0    0  0.25937949220E+02  0.27570938311E+02  0.41350000188E+01  0.38079286682E+02  0.00000000000E+00 0. -1.
      -12    1    3    3    0    0 -0.25937949220E+02 -0.27570938311E+02 -0.21565692365E+02  0.43566190289E+02  0.00000000000E+00 0.  1.
</event>
<event>
 5   0  0.8936300E+00  0.8309693E+02  0.7957747E-01  0.1319447E+00
        1   -1    0    0  501    0  0.00000000000E+00  0.00000000000E+00  0.12189854432E+02  0.12189854432E+02  0.00000000000E+00 0. -1.
       -2   -1    0    0    0  501  0.00000000000E+00  0.00000000000E+00 -0.14161571108E+03  0.14161571108E+03  0.00000000000E+00 0.  1.
      -24    2    1    2    0    0  0.00000000000E+00  0.00000000000E+00 -0.12942585664E+03  0.15380556551E+03  0.83096929025E+02 0.  0.
       11    1    3    3    0    0  0.25907299371E+02 -0.29792596233E+02 -0.40758883199E+02  0.56745691560E+02  0.00000000000E+00 0. -1.
      -12    1    3    3    0    0 -0.25907299371E+02  0.29792596233E+02 -0.88666973445E+02  0.97059873948E+02  0.00000000000E+00 0.  1.
</event>
<event>
 5   0  0.8936300E+00  0.8236956E+02  0.7957747E-01  0.1321317E+00
        1   -1    0    0  501    0  0.00000000000E+00  0.00000000000E+00  0.48500890049E+01  0.48500890049E+01  0.00000000000E+00 0. -1.
       -2   -1    0    0    0  501  0.00000000000E+00  0.00000000000E+00 -0.34972268662E+03  0.34972268662E+03  0.00000000000E+00 0.  1.
      -24    2    1    2    0    0  0.00000000000E+00  0.00000000000E+00 -0.34487259761E+03  0.35457277562E+03  0.82369561299E+02 0.  0.
       11    1    3    3    0    0  0.28968280320E+02 -0.21473424181E+02 -0.86783673337E+02  0.93976992762E+02  0.00000000000E+00 0. -1.
      -12    1    3    3    0    0 -0.28968280320E+02  0.21473424181E+02 -0.25808892428E+03  0.26059578286E+03  0.00000000000E+00 0.  1.
</event>
<event>
 5   0  0.8936300E+00  0.8095314E+02  0.7957747E-01  0.1325023E+00
       -2   -1    0    0    0  501  0.00000000000E+00  0.00000000000E+00  0.38041847996E+02  0.38041847996E+02  0.00000000000E+00 0.  1.
        1   -1    0    0  501    0  0.00000000000E+00  0.00000000000E+00 -0.43067113643E+02  0.43067113643E+02  0.00000000000E+00 0. -1.
      -24    2    1    2    0    0  0.00000000000E+00  0.00000000000E+00 -0.50252656471E+01  0.81108961640E+02  0.80953136835E+02 0.  0.
       11    1    3    3    0    0 -0.22964581912E+02 -0.33131280148E+02  0.11411447768E+01  0.40328103824E+02  0.00000000000E+00 0. -1.
      -12    1    3    3    0    0  0.22964581912E+02  0.33131280148E+02 -0.61664104238E+01  0.40780857815E+02  0.00000000000E+00 0.  1.
</event>
<event>
 5   0  0.8936300E+00  0.8049555E+02  0.7957747E-01  0.1326238E+00
        1   -1    0    0  501    0  0.00000000000E+00  0.00000000000E+00  0.62932623638E+02  0.62932623638E+02  0.00000000000E+00 0. -1.
       -2   -1    0    0    0  501  0.00000000000E+00  0.00000000000E+00 -0.25739963684E+02  0.25739963684E+02  0.00000000000E+00 0.  1.
      -24    2    1    2    0    0  0.00000000000E+00  0.00000000000E+00  0.37192659953E+02  0.88672587322E+02  0.80495551355E+02 0.  0.
       11    1    3    3    0    0 -0.39299943727E+02  0.75731747831E+01  0.13916881542E+02  0.42373554785E+02  0.00000000000E+00 0. -1.
      -12    1    3    3    0    0  0.39299943727E+02 -0.75731747831E+01  0.23275778412E+02  0.46299032537E+02  0.00000000000E+00 0.  1.
</event>
<event>
 5   0  0.8936300E+00  0.7994869E+02  0.7957747E-01  0.1327703E+00
        1   -1    0    0  501    0  0.00000000000E+00  0.00000000000E+00  0.20734613125E+02  0.20734613125E+02  0.00000000000E+00 0. -1.
       -2   -1    0    0    0  501  0.00000000000E+00  0.00000000000E+00 -0.77066708506E+02  0.77066708506E+02  0.00000000000E+00 0.  1.
      -24    2    1    2    0    0  0.00000000000E+00  0.00000000000E+00 -0.56332095380E+02  0.97801321631E+02  0.79948693190E+02 0.  0.
       11    1    3    3    0    0  0.13748021612E+02 -0.21074686979E+02  0.98311456951E+01  0.27014846940E+02  0.00000000000E+00 0. -1.
      -12    1    3    3    0    0 -0.13748021612E+02  0.21074686979E+02 -0.66163241076E+02  0.70786474691E+02  0.00000000000E+00 0.  1.
</event>
<event>
 5   0  0.8936300E+00  0.7306548E+02  0.7957747E-01  0.1347354E+00
        1   -1    0    0  501    0  0.00000000000E+00  0.00000000000E+00  0.25766573222E+01  0.25766573222E+01  0.00000000000E+00 0. -1.
       -2   -1    0    0    0  501  0.00000000000E+00  0.00000000000E+00 -0.51797388066E+03  0.51797388066E+03  0.00000000000E+00 0.  1.
      -24    2    1    2    0    0  0.00000000000E+00  0.00000000000E+00 -0.51539722333E+03  0.52055053798E+03  0.73065482748E+02 0.  0.
       11    1    3    3    0    0 -0.33797630637E+01 -0.18315472253E+02 -0.33786920415E+02  0.38580245118E+02  0.00000000000E+00 0. -1.
      -12    1    3    3    0    0  0.33797630637E+01  0.18315472253E+02 -0.48161030292E+03  0.48197029286E+03  0.00000000000E+00 0.  1.
</event>
<event>
 5   0  0.8936300E+00  0.8001996E+02  0.7957747E-01  0.1327511E+00
        3   -1    0    0  501    0  0.00000000000E+00  0.00000000000E+00  0.19207117248E+02  0.19207117248E+02  0.00000000000E+00 0. -1.
       -4   -1    0    0    0  501  0.00000000000E+00  0.00000000000E+00 -0.83344036535E+02  0.83344036535E+02  0.00000000000E+00 0.  1.
      -24    2    1    2    0    0  0.00000000000E+00  0.00000000000E+00 -0.64136919287E+02  0.10255115378E+03  0.80019964550E+02 0.  0.
       11    1    3    3    0    0  0.19436134712E+02 -0.34747280454E+02 -0.37140278436E+02  0.54447562974E+02  0.00000000000E+00 0. -1.
      -12    1    3    3    0    0 -0.19436134712E+02  0.34747280454E+02 -0.26996640851E+02  0.48103590809E+02  0.00000000000E+00 0.  1.
</event>
<event>
 5   0  0.8936300E+00  0.8049701E+02  0.7957747E-01  0.1326234E+00
        3   -1    0    0  501    0  0.00000000000E+00  0.00000000000E+00  0.25111309609E+02  0.25111309609E+02  0.00000000000E+00 0. -1.
       -4   -1    0    0    0  501  0.00000000000E+00  0.00000000000E+00 -0.64510465177E+02  0.64510465177E+02  0.00000000000E+00 0.  1.
      -24    2    1    2    0    0  0.00000000000E+00  0.00000000000E+00 -0.39399155568E+02  0.89621774786E+02  0.80497012717E+02 0.  0.
       11    1    3    3    0    0  0.36277265300E+01 -0.19040325646E+02  0.19572802826E+02  0.27546125153E+02  0.00000000000E+00 0. -1.
      -12    1    3    3    0    0 -0.36277265300E+01  0.19040325646E+02 -0.58971958394E+02  0.62075649633E+02  0.00000000000E+00 0.  1.
</event>
<event>
 5   0  0.8936300E+00  0.8022431E+02  0.7957747E-01  0.1326963E+00
       -2   -1    0    0    0  501  0.00000000000E+00  0.00000000000E+00  0.86740505682E+02  0.86740505682E+02  0.00000000000E+00 0.  1.
        1   -1    0    0  501    0  0.00000000000E+00  0.00000000000E+00 -0.18549409008E+02  0.18549409008E+02  0.00000000000E+00 0. -1.
      -24    2    1    2    0    0  0.00000000000E+00  0.00000000000E+00  0.68191096674E+02  0.10528991469E+03  0.80224313459E+02 0.  0.
       11    1    3    3    0    0  0.13652396675E+02  0.18669588255E+02 -0.89166591282E+01  0.24788067100E+02  0.00000000000E+00 0. -1.
      -12    1    3    3    0    0 -0.13652396675E+02 -0.18669588255E+02  0.77107755802E+02  0.80501847590E+02  0.00000000000E+00 0.  1.
</event>
<event>
 5   0  0.8936300E+00  0.8150417E+02  0.7957747E-01  0.1323571E+00
        1   -1    0    0  501    0  0.00000000000E+00  0.00000000000E+00  0.73243789730E+02  0.73243789730E+02  0.00000000000E+00 0. -1.
       -2   -1    0    0    0  501  0.00000000000E+00  0.00000000000E+00 -0.22674037414E+02  0.22674037414E+02  0.00000000000E+00 0.  1.
      -24    2    1    2    0    0  0.00000000000E+00  0.00000000000E+00  0.50569752316E+02  0.95917827144E+02  0.81504169922E+02 0.  0.
       11    1    3    3    0    0  0.29936325828E+02 -0.27090378249E+02  0.18768483973E+02  0.44523344308E+02  0.00000000000E+00 0. -1.
      -12    1    3    3    0    0 -0.29936325828E+02  0.27090378249E+02  0.31801268344E+02  0.51394482836E+02  0.00000000000E+00 0.  1.
</event>
<event>
 5   0  0.8936300E+00  0.8082311E+02  0.7957747E-01  0.1325367E+00
        1   -1    0    0  501    0  0.00000000000E+00  0.00000000000E+00  0.49169797831E+01  0.49169797831E+01  0.00000000000E+00 0. -1.
       -2   -1    0    0    0  501  0.00000000000E+00  0.00000000000E+00 -0.33213349559E+03  0.33213349559E+03  0.00000000000E+00 0.  1.
      -24    2    1    2    0    0  0.00000000000E+00  0.00000000000E+00 -0.32721651580E+03  0.33705047537E+03  0.80823107663E+02 0.  0.
       11    1    3    3    0    0  0.14956422860E+02 -0.20420613192E+02 -0.32236423680E+02  0.40986376268E+02  0.00000000000E+00 0. -1.
      -12    1    3    3    0    0 -0.14956422860E+02  0.20420613192E+02 -0.29498009212E+03  0.29606409910E+03  0.00000000000E+00 0.  1.
</event>
<event>
 5   0  0.8936300E+00  0.8030446E+02  0.7957747E-01  0.1326748E+00
        1   -1    0    0  501    0  0.00000000000E+00  0.00000000000E+00  0.70083200231E+02  0.70083200231E+02  0.00000000000E+00 0. -1.
       -2   -1    0    0    0  501  0.00000000000E+00  0.00000000000E+00 -0.23004110053E+02  0.23004110053E+02  0.00000000000E+00 0.  1.
      -24    2    1    2    0    0  0.00000000000E+00  0.00000000000E+00  0.47079090178E+02  0.93087310285E+02  0.80304461919E+02 0.  0.
       11    1    3    3    0    0  0.15158791115E+02 -0.23982309063E+02  0.56474565760E+02  0.63200606594E+02  0.00000000000E+00 0. -1.
      -12    1    3    3    0    0 -0.15158791115E+02  0.23982309063E+02 -0.93954755819E+01  0.29886703691E+02  0.00000000000E+00 0.  1.
</event>
<event>
 5   0  0.8936300E+00  0.7930158E+02  0.7957747E-01  0.1329453E+00
        1   -1    0    0  501    0  0.00000000000E+00  0.00000000000E+00  0.43102922447E+01  0.43102922447E+01  0.00000000000E+00 0. -1.
       -2   -1    0    0    0  501  0.00000000000E+00  0.00000000000E+00 -0.36475144773E+03  0.36475144773E+03  0.00000000000E+00 0.  1.
      -24    2    1    2    0    0  0.00000000000E+00  0.00000000000E+00 -0.36044115549E+03  0.36906173998E+03  0.79301584761E+02 0.  0.
       11    1    3    3    0    0 -0.20188727203E+02 -0.29575096528E+02 -0.10097920799E+03  0.10714042882E+03  0.00000000000E+00 0. -1.
      -12    1    3    3    0    0  0.20188727203E+02  0.29575096528E+02 -0.25946194750E+03  0.26192131116E+03  0.00000000000E+00 0.  1.
</event>
<event>
 5   0  0.8936300E+00  0.7831605E+02  0.7957747E-01  0.1332156E+00
        1   -1    0    0  501    0  0.00000000000E+00  0.00000000000E+00  0.25475183885E+03  0.25475183885E+03  0.00000000000E+00 0. -1.
       -2   -1    0    0    0  501  0.00000000000E+00  0.00000000000E+00 -0.60189991436E+01  0.60189991436E+01  0.00000000000E+00 0.  1.
      -24    2    1    2    0    0  0.00000000000E+00  0.00000000000E+00  0.24873283971E+03  0.26077083799E+03  0.78316054545E+02 0.  0.
       11    1    3    3    0    0  0.10619822736E+02  0.32525077866E+02  0.18777906630E+03  0.19087073916E+03  0.00000000000E+00 0. -1.
      -12    1    3    3    0    0 -0.10619822736E+02 -0.32525077866E+02  0.60953773403E+02  0.69900098836E+02  0.00000000000E+00 0.  1.
</event>
<event>
 5   0  0.8936300E+00  0.8382479E+02  0.7957747E-01  0.1317597E+00
        1   -1    0    0  501    0  0.00000000000E+00  0.00000000000E+00  0.16523217848E+03  0.16523217848E+03  0.00000000000E+00 0. -1.
       -2   -1    0    0    0  501  0.00000000000E+00  0.00000000000E+00 -0.10631398007E+02  0.10631398007E+02  0.00000000000E+00 0.  1.
      -24    2    1    2    0    0  0.00000000000E+00  0.00000000000E+00  0.15460078047E+03  0.17586357648E+03  0.83824794731E+02 0.  0.
       11    1    3    3    0    0 -0.34847830651E+02  0.23100596296E+02  0.83467268348E+02  0.93353059595E+02  0.00000000000E+00 0. -1.
      -12    1    3    3    0    0  0.34847830651E+02 -0.23100596296E+02  0.71133512124E+02  0.82510516890E+02  0.00000000000E+00 0.  1.
</event>
<event>
 5   0  0.8936300E+00  0.8014812E+02  0.7957747E-01  0.1327167E+00
        1   -1    0    0  501    0  0.00000000000E+00  0.00000000000E+00  0.16293981315E+02  0.16293981315E+02  0.00000000000E+00 0. -1.
       -2   -1    0    0    0  501  0.00000000000E+00  0.00000000000E+00 -0.98559717277E+02  0.98559717277E+02  0.00000000000E+00 0.  1.
      -24    2    1    2    0    0  0.00000000000E+00  0.00000000000E+00 -0.82265735962E+02  0.11485369859E+03  0.80148117676E+02 0.  0.
       11    1    3    3    0    0 -0.36751329168E+02  0.64857183472E+01 -0.20208574018E+02  0.42439500491E+02  0.00000000000E+00 0. -1.
      -12    1    3    3    0    0  0.36751329168E+02 -0.64857183472E+01 -0.62057161944E+02  0.72414198101E+02  0.00000000000E+00 0.  1.
</event>
<event>
 5   0  0.8936300E+00  0.8080785E+02  0.7957747E-01  0.1325408E+00
        1   -1    0    0  501    0  0.00000000000E+00  0.00000000000E+00  0.54515133600E+01  0.54515133600E+01  0.00000000000E+00 0. -1.
       -2   -1    0    0    0  501  0.00000000000E+00  0.00000000000E+00 -0.29945393417E+03  0.29945393417E+03  0.00000000000E+00 0.  1.
      -24    2    1    2    0    0  0.00000000000E+00  0.00000000000E+00 -0.29400242081E+03  0.30490544753E+03  0.80807849194E+02 0.  0.
       11    1    3    3    0    0  0.23269473154E+02  0.11370071401E+02 -0.29987091415E+02  0.39622879200E+02  0.00000000000E+00 0. -1.
      -12    1    3    3    0    0 -0.23269473154E+02 -0.11370071401E+02 -0.26401532940E+03  0.26528256833E+03  0.00000000000E+00 0.  1.
</event>
<event>
 4   0  0.8936300E+00  0.4166217E+02  0.7957747E-01  0.1484451E+00
        1   -1    0    0  501    0  0.00000000000E+00  0.00000000000E+00  0.40943292066E+02  0.40943292066E+02  0.00000000000E+00 0. -1.
       -2   -1    0    0    0  501  0.00000000000E+00  0.00000000000E+00 -0.10598417497E+02  0.10598417497E+02  0.00000000000E+00 0.  1.
       11    1    1    2    0    0  0.19118389090E+02 -0.81271671058E+01  0.17077165109E+02  0.26892251945E+02  0.00000000000E+00 0. -1.
      -12    1    1    2    0    0 -0.19118389090E+02  0.81271671058E+01  0.13267709460E+02  0.24649457618E+02  0.00000000000E+00 0.  1.
</event>
<event>
 5   0  0.8936300E+00  0.8020036E+02  0.7957747E-01  0.1327027E+00
        1   -1    0    0  501    0  0.00000000000E+00  0.00000000000E+00  0.15418830366E+02  0.15418830366E+02  0.00000000000E+00 0. -1.
       -2   -1    0    0    0  501  0.00000000000E+00  0.00000000000E+00 -0.10428964159E+03  0.10428964159E+03  0.00000000000E+00 0.  1.
      -24    2    1    2    0    0  0.00000000000E+00  0.00000000000E+00 -0.88870811219E+02  0.11970847195E+03  0.80200356421E+02 0.  0.
       11    1    3    3    0    0 -0.13283400585E+02  0.17480137825E+01  0.11979225514E+02  0.17972371218E+02  0.00000000000E+00 0. -1.
      -12    1    3    3    0    0  0.13283400585E+02 -0.17480137825E+01 -0.10085003673E+03  0.10173610073E+03  0.00000000000E+00 0.  1.
</event>
<event>
 5   0  0.8936300E+00  0.8098553E+02  0.7957747E-01  0.1324937E+00
        1   -1    0    0  501    0  0.00000000000E+00  0.00000000000E+00  0.13464091708E+02  0.13464091708E+02  0.00000000000E+00 0. -1.
       -2   -1    0    0    0  501  0.00000000000E+00  0.00000000000E+00 -0.12178050539E+03  0.12178050539E+03  0.00000000000E+00 0.  1.
      -24    2    1    2    0    0  0.00000000000E+00  0.00000000000E+00 -0.10831641368E+03  0.13524459710E+03  0.80985526926E+02 0.  0.
       11    1    3    3    0    0  0.22765498588E+02 -0.30930528426E+02 -0.75589934087E+02  0.84786812949E+02  0.00000000000E+00 0. -1.
      -12    1    3    3    0    0 -0.22765498588E+02  0.30930528426E+02 -0.32726479597E+02  0.50457784152E+02  0.00000000000E+00 0.  1.
</event>
<event>
 5   0  0.8936300E+00  0.8539794E+02  0.7957747E-01  0.1313670E+00
        1   -1    0    0  501    0  0.00000000000E+00  0.00000000000E+00  0.12060133819E+02  0.12060133819E+02  0.00000000000E+00 0. -1.
       -2   -1    0    0    0  501  0.00000000000E+00  0.00000000000E+00 -0.15117594462E+03  0.15117594462E+03  0.00000000000E+00 0.  1.
      -24    2    1    2    0    0  0.00000000000E+00  0.00000000000E+00 -0.13911581080E+03  0.16323607844E+03  0.85397941949E+02 0.  0.
       11    1    3    3    0    0 -0.25202202173E+02  0.30043995140E+02 -0.10185050059E+03  0.10913898070E+03  0.00000000000E+00 0. -1.
      -12    1    3    3    0    0  0.25202202173E+02 -0.30043995140E+02 -0.37265310212E+02  0.54097097736E+02  0.00000000000E+00 0.  1.
</event>
<event>
 5   0  0.8936300E+00  0.7936983E+02  0.7957747E-01  0.1329268E+00
        1   -1    0    0  501    0  0.00000000000E+00  0.00000000000E+00  0.12510343661E+02  0.12510343661E+02  0.00000000000E+00 0. -1.
       -2   -1    0    0    0  501  0.00000000000E+00  0.00000000000E+00 -0.12588721464E+03  0.12588721464E+03  0.00000000000E+00 0.  1.
      -24    2    1    2    0    0  0.00000000000E+00  0.00000000000E+00 -0.11337687098E+03  0.13839755830E+03  0.79369825947E+02 0.  0.
       11    1    3    3    0    0 -0.14985381352E+02 -0.36691367183E+02 -0.60208058788E+02  0.72082095024E+02  0.00000000000E+00 0. -1.
      -12    1    3    3    0    0  0.14985381352E+02  0.36691367183E+02 -0.53168812192E+02  0.66315463279E+02  0.00000000000E+00 0.  1.
</event>
<event>
 5   0  0.8936300E+00  0.7776029E+02  0.7957747E-01  0.1333699E+00
        1   -1    0    0  501    0  0.00000000000E+00  0.00000000000E+00  0.16679306690E+03  0.16679306690E+03  0.00000000000E+00 0. -1.
       -2   -1    0    0    0  501  0.00000000000E+00  0.00000000000E+00 -0.90631214102E+01  0.90631214102E+01  0.00000000000E+00 0.  1.
      -24    2    1    2    0    0  0.00000000000E+00  0.00000000000E+00  0.15772994549E+03  0.17585618831E+03  0.77760293612E+02 0.  0.
       11    1    3    3    0    0 -0.29360744717E+02 -0.99093486740E+01  0.13197052814E+03  0.13555983483E+03  0.00000000000E+00 0. -1.
      -12    1    3    3    0    0  0.29360744717E+02  0.99093486740E+01  0.25759417344E+02  0.40296353475E+02  0.00000000000E+00 0.  1.
</event>
<event>
 5   0  0.8936300E+00  0.7994347E+02  0.7957747E-01  0.1327717E+00
        1   -1    0    0  501    0  0.00000000000E+00  0.00000000000E+00  0.10747468640E+02  0.10747468640E+02  0.00000000000E+00 0. -1.
       -2   -1    0    0    0  501  0.00000000000E+00  0.00000000000E+00 -0.14866192943E+03  0.14866192943E+03  0.00000000000E+00 0.  1.
      -24    2    1    2    0    0  0.00000000000E+00  0.00000000000E+00 -0.13791446079E+03  0.15940939807E+03  0.79943465637E+02 0.  0.
       11    1    3    3    0    0 -0.26237944544E+02  0.96663861274E+01 -0.12000951126E+02  0.30428466648E+02  0.00000000000E+00 0. -1.
      -12    1    3    3    0    0  0.26237944544E+02 -0.96663861274E+01 -0.12591350966E+03  0.12898093142E+03  0.00000000000E+00 0.  1.
</event>
<event>
 5   0  0.8936300E+00  0.7925318E+02  0.7957747E-01  0.1329585E+00
        1   -1    0    0  501    0  0.00000000000E+00  0.00000000000E+00  0.11436960685E+03  0.11436960685E+03  0.00000000000E+00 0. -1.
       -2   -1    0    0    0  501  0.00000000000E+00  0.00000000000E+00 -0.13729753594E+02  0.13729753594E+02  0.00000000000E+00 0.  1.
      -24    2    1    2    0    0  0.00000000000E+00  0.00000000000E+00  0.10063985325E+03  0.12809936044E+03  0.79253177115E+02 0.  0.
       11    1    3    3    0    0  0.16421130031E+02 -0.11645823620E+02  0.10548840036E+03  0.10739218467E+03  0.00000000000E+00 0. -1.
      -12    1    3    3    0    0 -0.16421130031E+02  0.11645823620E+02 -0.48485471031E+01  0.20707175768E+02  0.00000000000E+00 0.  1.
</event>
<event>
 5   0  0.8936300E+00  0.7961556E+02  0.7957747E-01  0.1328602E+00
       -4   -1    0    0    0  501  0.00000000000E+00  0.00000000000E+00  0.17120425359E+02  0.17120425359E+02  0.00000000000E+00 0.  1.
        3   -1    0    0  501    0  0.00000000000E+00  0.00000000000E+00 -0.92559572677E+02  0.92559572677E+02  0.00000000000E+00 0. -1.
      -24    2    1    2    0    0  0.00000000000E+00  0.00000000000E+00 -0.75439147318E+02  0.10967999804E+03  0.79615557656E+02 0.  0.
       11    1    3    3    0    0  0.24469276180E+01  0.39636036781E+02 -0.41531473495E+02  0.57461866983E+02  0.00000000000E+00 0. -1.
      -12    1    3    3    0    0 -0.24469276180E+01 -0.39636036781E+02 -0.33907673823E+02  0.52218131052E+02  0.00000000000E+00 0.  1.
</event>
<event>
 5   0  0.8936300E+00  0.7956832E+02  0.7957747E-01  0.1328729E+00
        1   -1    0    0  501    0  0.00000000000E+00  0.00000000000E+00  0.19601140385E+02  0.19601140385E+02  0.00000000000E+00 0. -1.
       -2   -1    0    0    0  501  0.00000000000E+00  0.00000000000E+00 -0.80749352436E+02  0.80749352436E+02  0.00000000000E+00 0.  1.
      -24    2    1    2    0    0  0.00000000000E+00  0.00000000000E+00 -0.61148212051E+02  0.10035049282E+03  0.79568320156E+02 0.  0.
       11    1    3    3    0    0  0.24206478667E+02  0.92527375714E+01  0.74964470313E+01  0.26977091765E+02  0.00000000000E+00 0. -1.
      -12    1    3    3    0    0 -0.24206478667E+02 -0.92527375714E+01 -0.68644659082E+02  0.73373401056E+02  0.00000000000E+00 0.  1.
</event>
<event>
 5   0  0.8936300E+00  0.8718531E+02  0.7957747E-01  0.1309323E+00
        1   -1    0    0  501    0  0.00000000000E+00  0.00000000000E+00  0.49300163171E+01  0.49300163171E+01  0.00000000000E+00 0. -1.
       -2   -1    0    0    0  501  0.00000000000E+00  0.00000000000E+00 -0.38545911920E+03  0.38545911920E+03  0.00000000000E+00 0.  1.
      -24    2    1    2    0    0  0.00000000000E+00  0.00000000000E+00 -0.38052910289E+03  0.39038913552E+03  0.87185314068E+02 0.  0.
       11    1    3    3    0    0  0.13651608072E+02 -0.50192668448E+01 -0.62558364504E+01  0.15833348739E+02  0.00000000000E+00 0. -1.
      -12    1    3    3    0    0 -0.13651608072E+02  0.50192668448E+01 -0.37427326644E+03  0.37455578678E+03  0.00000000000E+00 0.  1.
</event>
<event>
 5   0  0.8936300E+00  0.8068346E+02  0.7957747E-01  0.1325738E+00
        1   -1    0    0  501    0  0.00000000000E+00  0.00000000000E+00  0.76621853604E+01  0.76621853604E+01  0.00000000000E+00 0. -1.
       -2   -1    0    0    0  501  0.00000000000E+00  0.00000000000E+00 -0.21240090217E+03  0.21240090217E+03  0.00000000000E+00 0.  1.
      -24    2    1    2    0    0  0.00000000000E+00  0.00000000000E+00 -0.20473871681E+03  0.22006308753E+03  0.80683457614E+02 0.  0.
       11    1    3    3    0    0  0.62990129577E+01  0.13618510824E+02 -0.23184362944E+00  0.15006503683E+02  0.00000000000E+00 0. -1.
      -12    1    3    3    0    0 -0.62990129577E+01 -0.13618510824E+02 -0.20450687318E+03  0.20505658385E+03  0.00000000000E+00 0.  1.
</event>
<event>
 5   0  0.8936300E+00  0.7728329E+02  0.7957747E-01  0.1335036E+00
        1   -1    0    0  501    0  0.00000000000E+00  0.00000000000E+00  0.51096477130E+01  0.51096477130E+01  0.00000000000E+00 0. -1.
       -2   -1    0    0    0  501  0.00000000000E+00  0.00000000000E+00 -0.29222695796E+03  0.29222695796E+03  0.00000000000E+00 0.  1.
      -24    2    1    2    0    0  0.00000000000E+00  0.00000000000E+00 -0.28711731025E+03  0.29733660568E+03  0.77283292048E+02 0.  0.
       11    1    3    3    0    0  0.43315501881E+01 -0.35375273087E+02 -0.86104742092E+02  0.93189049162E+02  0.00000000000E+00 0. -1.
      -12    1    3    3    0    0 -0.43315501881E+01  0.35375273087E+02 -0.20101256816E+03  0.20414755651E+03  0.00000000000E+00 0.  1.
</event>
<event>
 5   0  0.8936300E+00  0.8136497E+02  0.7957747E-01  0.1323936E+00
        1   -1    0    0  501    0  0.00000000000E+00  0.00000000000E+00  0.15092040486E+02  0.15092040486E+02  0.00000000000E+00 0. -1.
       -2   -1    0    0    0  501  0.00000000000E+00  0.00000000000E+00 -0.10966473792E+03  0.10966473792E+03  0.00000000000E+00 0.  1.
      -24    2    1    2    0    0  0.00000000000E+00  0.00000000000E+00 -0.94572697435E+02  0.12475677841E+03  0.81364971937E+02 0.  0.
       11    1    3    3    0    0 -0.22902616160E+02 -0.53619261727E+01  0.36086395363E+01  0.23797108198E+02  0.00000000000E+00 0. -1.
      -12    1    3    3    0    0  0.22902616160E+02  0.53619261727E+01 -0.98181336971E+02  0.10095967021E+03  0.00000000000E+00 0.  1.
</event>
<event>
 5   0  0.8936300E+00  0.8096239E+02  0.7957747E-01  0.1324998E+00
        1   -1    0    0  501    0  0.00000000000E+00  0.00000000000E+00  0.52189659539E+02  0.52189659539E+02  0.00000000000E+00 0. -1.
       -2   -1    0    0    0  501  0.00000000000E+00  0.00000000000E+00 -0.31399464035E+02  0.31399464035E+02  0.00000000000E+00 0.  1.
      -24    2    1    2    0    0  0.00000000000E+00  0.00000000000E+00  0.20790195504E+02  0.83589123573E+02  0.80962394670E+02 0.  0.
       11    1    3    3    0    0 -0.16779150311E+02  0.31483231715E+02  0.30146737524E+02  0.46707168055E+02  0.00000000000E+00 0. -1.
      -12    1    3    3    0    0  0.16779150311E+02 -0.31483231715E+02 -0.93565420197E+01  0.36881955519E+02  0.00000000000E+00 0.  1.
</event>
<event>
 5   0  0.8936300E+00  0.7082081E+02  0.7957747E-01  0.1354301E+00
        1   -1    0    0  501    0  0.00000000000E+00  0.00000000000E+00  0.10662967497E+03  0.10662967497E+03  0.00000000000E+00 0. -1.
       -2   -1    0    0    0  501  0.00000000000E+00  0.00000000000E+00 -0.11759361016E+02  0.11759361016E+02  0.00000000000E+00 0.  1.
      -24    2    1    2    0    0  0.00000000000E+00  0.00000000000E+00  0.94870313953E+02  0.11838903599E+03  0.70820811715E+02 0.  0.
       11    1    3    3    0    0  0.30196002122E+02  0.10720643048E+02  0.72630620708E+02  0.79384745360E+02  0.00000000000E+00 0. -1.
      -12    1    3    3    0    0 -0.30196002122E+02 -0.10720643048E+02  0.22239693245E+02  0.39004290625E+02  0.00000000000E+00 0.  1.
</event>
<event>
 5   0  0.8936300E+00  0.7968770E+02  0.7957747E-01  0.1328406E+00
        1   -1    0    0  501    0  0.00000000000E+00  0.00000000000E+00  0.66301272273E+02  0.66301272273E+02  0.00000000000E+00 0. -1.
       -2   -1    0    0    0  501  0.00000000000E+00  0.00000000000E+00 -0.23944224650E+02  0.23944224650E+02  0.00000000000E+00 0.  1.
      -24    2    1    2    0    0  0.00000000000E+00  0.00000000000E+00  0.42357047623E+02  0.90245496923E+02  0.79687704394E+02 0.  0.
       11    1    3    3    0    0 -0.29698665602E+02  0.85311508776E+01  0.49665562827E+02  0.58493242385E+02  0.00000000000E+00 0. -1.
      -12    1    3    3    0    0  0.29698665602E+02 -0.85311508776E+01 -0.73085152034E+01  0.31752254539E+02  0.00000000000E+00 0.  1.
</event>
<event>
 5   0  0.8936300E+00  0.8403622E+02  0.7957747E-01  0.1317064E+00
        1   -1    0    0  501    0  0.00000000000E+00  0.00000000000E+00  0.45071259728E+02  0.45071259728E+02  0.00000000000E+00 0. -1.
       -2   -1    0    0    0  501  0.00000000000E+00  0.00000000000E+00 -0.39171779222E+02  0.39171779222E+02  0.00000000000E+00 0.  1.
      -24    2    1    2    0    0  0.00000000000E+00  0.00000000000E+00  0.58994805057E+01  0.84243038950E+02  0.84036216843E+02 0.  0.
       11    1    3    3    0    0 -0.38810905606E+02 -0.83585296591E+01  0.16744786104E+02  0.43087576791E+02  0.00000000000E+00 0. -1.
      -12    1    3    3    0    0  0.38810905606E+02  0.83585296591E+01 -0.10845305599E+02  0.41155462159E+02  0.00000000000E+00 0.  1.
</event>
<event>
 5   0  0.8936300E+00  0.8015518E+02  0.7957747E-01  0.1327148E+00
        3   -1    0    0  501    0  0.00000000000E+00  0.00000000000E+00  0.72209637182E+02  0.72209637182E+02  0.00000000000E+00 0. -1.
       -4   -1    0    0    0  501  0.00000000000E+00  0.00000000000E+00 -0.22243753033E+02  0.22243753033E+02  0.00000000000E+00 0.  1.
      -24    2    1    2    0    0  0.00000000000E+00  0.00000000000E+00  0.49965884148E+02  0.94453390215E+02  0.80155182892E+02 0.  0.
       11    1    3    3    0    0 -0.39558951400E+02  0.43395928188E+01  0.30568847880E+02  0.50181641687E+02  0.00000000000E+00 0. -1.
      -12    1    3    3    0    0  0.39558951400E+02 -0.43395928188E+01  0.19397036269E+02  0.44271748528E+02  0.00000000000E+00 0.  1.
</event>
<event>
 5   0  0.8936300E+00  0.8831807E+02  0.7957747E-01  0.1306628E+00
        3   -1    0    0  501    0  0.00000000000E+00  0.00000000000E+00  0.21872800109E+02  0.21872800109E+02  0.00000000000E+00 0. -1.
       -4   -1    0    0    0  501  0.00000000000E+00  0.00000000000E+00 -0.89152757930E+02  0.89152757930E+02  0.00000000000E+00 0.  1.
      -24    2    1    2    0    0  0.00000000000E+00  0.00000000000E+00 -0.67279957822E+02  0.11102555804E+03  0.88318071839E+02 0.  0.
       11    1    3    3    0    0 -0.40427628205E+02 -0.16383142907E+02 -0.25001521603E+02  0.50277992961E+02  0.00000000000E+00 0. -1.
      -12    1    3    3    0    0  0.40427628205E+02  0.16383142907E+02 -0.42278436219E+02  0.60747565078E+02  0.00000000000E+00 0.  1.
</event>
<event>
 5   0  0.8936300E+00  0.7975226E+02  0.7957747E-01  0.1328232E+00
       -2   -1    0    0    0  501  0.00000000000E+00  0.00000000000E+00  0.12485796704E+02  0.12485796704E+02  0.00000000000E+00 0.  1.
        1   -1    0    0  501    0  0.00000000000E+00  0.00000000000E+00 -0.12735316354E+03  0.12735316354E+03  0.00000000000E+00 0. -1.
      -24    2    1    2    0    0  0.00000000000E+00  0.00000000000E+00 -0.11486736683E+03  0.13983896024E+03  0.79752259141E+02 0.  0.
       11    1    3    3    0    0  0.10708275956E+02  0.28407687760E+02 -0.10276694808E+03  0.10715740533E+03  0.00000000000E+00 0. -1.
      -12    1    3    3    0    0 -0.10708275956E+02 -0.28407687760E+02 -0.12100418751E+02  0.32681554917E+02  0.00000000000E+00 0.  1.
</event>
<event>
 5   0  0.8936300E+00  0.7913421E+02  0.7957747E-01  0.1329909E+00
        1   -1    0    0  501    0  0.00000000000E+00  0.00000000000E+00  0.64857939978E+01  0.64857939978E+01  0.00000000000E+00 0. -1.
       -2   -1    0    0    0  501  0.00000000000E+00  0.00000000000E+00 -0.24138227420E+03  0.24138227420E+03  0.00000000000E+00 0.  1.
      -24    2    1    2    0    0  0.00000000000E+00  0.00000000000E+00 -0.23489648020E+03  0.24786806820E+03  0.79134207652E+02 0.  0.
       11    1    3    3    0    0 -0.21183458159E+02 -0.16922523958E+02 -0.27184825595E+02  0.38394341501E+02  0.00000000000E+00 0. -1.
      -12    1    3    3    0    0  0.21183458159E+02  0.16922523958E+02 -0.20771165461E+03  0.20947372670E+03  0.00000000000E+00 0.  1.
</event>
<event>
 5   0  0.8936300E+00  0.8027293E+02  0.7957747E-01  0.1326833E+00
        1   -1    0    0  501    0  0.00000000000E+00  0.00000000000E+00  0.35133847381E+02  0.35133847381E+02  0.00000000000E+00 0. -1.
       -2   -1    0    0    0  501  0.00000000000E+00  0.00000000000E+00 -0.45851396516E+02  0.45851396516E+02  0.00000000000E+00 0.  1.
      -24    2    1    2    0    0  0.00000000000E+00  0.00000000000E+00 -0.10717549135E+02  0.80985243897E+02  0.80272933605E+02 0.  0.
       11    1    3    3    0    0  0.31177092555E+02  0.24522502328E+02  0.82519656063E+00  0.39674238114E+02  0.00000000000E+00 0. -1.
      -12    1    3    3    0    0 -0.31177092555E+02 -0.24522502328E+02 -0.11542745695E+02  0.41311005783E+02  0.00000000000E+00 0.  1.
</event>
<event>
 5   0  0.8936300E+00  0.7715917E+02  0.7957747E-01  0.1335386E+00
        1   -1    0    0  501    0  0.00000000000E+00  0.00000000000E+00  0.75074334409E+02  0.75074334409E+02  0.00000000000E+00 0. -1.
       -2   -1    0    0    0  501  0.00000000000E+00  0.00000000000E+00 -0.19825473122E+02  0.19825473122E+02  0.00000000000E+00 0.  1.
      -24    2    1    2    0    0  0.00000000000E+00  0.00000000000E+00  0.55248861288E+02  0.94899807531E+02  0.77159165339E+02 0.  0.
       11    1    3    3    0    0  0.20357942980E+02  0.16032269755E+02  0.62777520432E+02  0.67915363412E+02  0.00000000000E+00 0. -1.
      -12    1    3    3    0    0 -0.20357942980E+02 -0.16032269755E+02 -0.75286591440E+01  0.26984444119E+02  0.00000000000E+00 0.  1.
</event>
<event>
 5   0  0.8936300E+00  0.5906031E+02  0.7957747E-01  0.1396199E+00
        1   -1    0    0  501    0  0.00000000000E+00  0.00000000000E+00  0.73395578199E+01  0.73395578199E+01  0.00000000000E+00 0. -1.
       -2   -1    0    0    0  501  0.00000000000E+00  0.00000000000E+00 -0.11881235595E+03  0.11881235595E+03  0.00000000000E+00 0.  1.
      -24    2    1    2    0    0  0.00000000000E+00  0.00000000000E+00 -0.11147279813E+03  0.12615191377E+03  0.59060313451E+02 0.  0.
       11    1    3    3    0    0 -0.16312696676E+02  0.49840655695E+01 -0.42469798570E+01  0.17577878721E+02  0.00000000000E+00 0. -1.
      -12    1    3    3    0    0  0.16312696676E+02 -0.49840655695E+01 -0.10722581827E+03  0.10857403505E+03  0.00000000000E+00 0.  1.
</event>
<event>
 5   0  0.8936300E+00  0.5023802E+02  0.7957747E-01  0.1435773E+00
        1   -1    0    0  501    0  0.00000000000E+00  0.00000000000E+00  0.80832922207E+01  0.80832922207E+01  0.00000000000E+00 0. -1.
       -2   -1    0    0    0  501  0.00000000000E+00  0.00000000000E+00 -0.78057876511E+02  0.78057876511E+02  0.00000000000E+00 0.  1.
      -24    2    1    2    0    0  0.00000000000E+00  0.00000000000E+00 -0.69974584290E+02  0.86141168731E+02  0.50238018510E+02 0.  0.
       11    1    3    3    0    0  0.18473771056E+02 -0.12208434637E+01 -0.58787343788E+01  0.19424988898E+02  0.00000000000E+00 0. -1.
      -12    1    3    3    0    0 -0.18473771056E+02  0.12208434637E+01 -0.64095849911E+02  0.66716179834E+02  0.00000000000E+00 0.  1.
</event>
<event>
 5   0  0.8936300E+00  0.7927464E+02  0.7957747E-01  0.1329526E+00
       -2   -1    0    0    0  501  0.00000000000E+00  0.00000000000E+00  0.27515437053E+02  0.27515437053E+02  0.00000000000E+00 0.  1.
        1   -1    0    0  501    0  0.00000000000E+00  0.00000000000E+00 -0.57099474874E+02  0.57099474874E+02  0.00000000000E+00 0. -1.
      -24    2    1    2    0    0  0.00000000000E+00  0.00000000000E+00 -0.29584037821E+02  0.84614911927E+02  0.79274636718E+02 0.  0.
       11    1    3    3    0    0  0.18821797115E+02 -0.22490579304E+02 -0.43253457895E+02  0.52258471313E+02  0.00000000000E+00 0. -1.
      -12    1    3    3    0    0 -0.18821797115E+02  0.22490579304E+02  0.13669420074E+02  0.32356440615E+02  0.00000000000E+00 0.  1.
</event>
<event>
 5   0  0.8936300E+00  0.8073414E+02  0.7957747E-01  0.1325603E+00
        1   -1    0    0  501    0  0.00000000000E+00  0.00000000000E+00  0.25171444997E+02  0.25171444997E+02  0.00000000000E+00 0. -1.
       -2   -1    0    0    0  501  0.00000000000E+00  0.00000000000E+00 -0.64736066698E+02  0.64736066698E+02  0.00000000000E+00 0.  1.
      -24    2    1    2    0    0  0.00000000000E+00  0.00000000000E+00 -0.39564621700E+02  0.89907511695E+02  0.80734140045E+02 0.  0.
       11    1    3    3    0    0  0.31736455088E+02 -0.24736458490E+02 -0.23374570909E+02  0.46534562697E+02  0.00000000000E+00 0. -1.
      -12    1    3    3    0    0 -0.31736455088E+02  0.24736458490E+02 -0.16190050791E+02  0.43372948998E+02  0.00000000000E+00 0.  1.
</event>
<event>
 5   0  0.8936300E+00  0.8487116E+02  0.7957747E-01  0.1314974E+00
        1   -1    0    0  501    0  0.00000000000E+00  0.00000000000E+00  0.19843519384E+03  0.19843519384E+03  0.00000000000E+00 0. -1.
       -2   -1    0    0    0  501  0.00000000000E+00  0.00000000000E+00 -0.90748940653E+01  0.90748940653E+01  0.00000000000E+00 0.  1.
      -24    2    1    2    0    0  0.00000000000E+00  0.00000000000E+00  0.18936029977E+03  0.20751008790E+03  0.84871157949E+02 0.  0.
       11    1    3    3    0    0  0.25965503146E+02 -0.16784171746E+02  0.16574782797E+03  0.16860681555E+03  0.00000000000E+00 0. -1.
      -12    1    3    3    0    0 -0.25965503146E+02  0.16784171746E+02  0.23612471805E+02  0.38903272350E+02  0.00000000000E+00 0.  1.
</event>
<event>
 5   0  0.8936300E+00  0.7751831E+02  0.7957747E-01  0.1334376E+00
        1   -1    0    0  501    0  0.00000000000E+00  0.00000000000E+00  0.51337991147E+02  0.51337991147E+02  0.00000000000E+00 0. -1.
       -2   -1    0    0    0  501  0.00000000000E+00  0.00000000000E+00 -0.29262382236E+02  0.29262382236E+02  0.00000000000E+00 0.  1.
      -24    2    1    2    0    0  0.00000000000E+00  0.00000000000E+00  0.22075608911E+02  0.80600373382E+02  0.77518305455E+02 0.  0.
       11    1    3    3    0    0 -0.17400772721E+02  0.10466457496E+02  0.45364637627E+02  0.49701951379E+02  0.00000000000E+00 0. -1.
      -12    1    3    3    0    0  0.17400772721E+02 -0.10466457496E+02 -0.23289028716E+02  0.30898422004E+02  0.00000000000E+00 0.  1.
</event>
<event>
 5   0  0.8936300E+00  0.8100736E+02  0.7957747E-01  0.1324879E+00
        1   -1    0    0  501    0  0.00000000000E+00  0.00000000000E+00  0.25781062846E+03  0.25781062846E+03  0.00000000000E+00 0. -1.
       -2   -1    0    0    0  501  0.00000000000E+00  0.00000000000E+00 -0.63633838614E+01  0.63633838614E+01  0.00000000000E+00 0.  1.
      -24    2    1    2    0    0  0.00000000000E+00  0.00000000000E+00  0.25144724459E+03  0.26417401232E+03  0.81007357503E+02 0.  0.
       11    1    3    3    0    0  0.92828811964E+01 -0.38652509653E+02  0.10038757698E+03  0.10797154254E+03  0.00000000000E+00 0. -1.
      -12    1    3    3    0    0 -0.92828811964E+01  0.38652509653E+02  0.15105966761E+03  0.15620246978E+03  0.00000000000E+00 0.  1.
</event>
<event>
 5   0  0.8936300E+00  0.7882489E+02  0.7957747E-01  0.1330755E+00
       -2   -1    0    0    0  501  0.00000000000E+00  0.00000000000E+00  0.18465012638E+02  0.18465012638E+02  0.00000000000E+00 0.  1.
        1   -1    0    0  501    0  0.00000000000E+00  0.00000000000E+00 -0.84123453679E+02  0.84123453679E+02  0.00000000000E+00 0. -1.
      -24    2    1    2    0    0  0.00000000000E+00  0.00000000000E+00 -0.65658441041E+02  0.10258846632E+03  0.78824885293E+02 0.  0.
       11    1    3    3    0    0  0.17792184168E+02 -0.31215442590E+02 -0.53910471756E+02  0.64786608481E+02  0.00000000000E+00 0. -1.
      -12    1    3    3    0    0 -0.17792184168E+02  0.31215442590E+02 -0.11747969285E+02  0.37801857836E+02  0.00000000000E+00 0.  1.
</event>
<event>
 5   0  0.8936300E+00  0.7905246E+02  0.7957747E-01  0.1330132E+00
        1   -1    0    0  501    0  0.00000000000E+00  0.00000000000E+00  0.68632832821E+02  0.68632832821E+02  0.00000000000E+00 0. -1.
       -2   -1    0    0    0  501  0.00000000000E+00  0.00000000000E+00 -0.22763489455E+02  0.22763489455E+02  0.00000000000E+00 0.  1.
      -24    2    1    2    0    0  0.00000000000E+00  0.00000000000E+00  0.45869343365E+02  0.91396322276E+02  0.79052457678E+02 0.  0.
       11    1    3    3    0    0 -0.23846319910E+01  0.36140479691E+02  0.41233318033E+02  0.54881757060E+02  0.00000000000E+00 0. -1.
      -12    1    3    3    0    0  0.23846319910E+01 -0.36140479691E+02  0.46360253330E+01  0.36514565216E+02  0.00000000000E+00 0.  1.
</event>
<event>
 5   0  0.8936300E+00  0.8043476E+02  0.7957747E-01  0.1326400E+00
        1   -1    0    0  501    0  0.00000000000E+00  0.00000000000E+00  0.13226402477E+03  0.13226402477E+03  0.00000000000E+00 0. -1.
       -2   -1    0    0    0  501  0.00000000000E+00  0.00000000000E+00 -0.12228855268E+02  0.12228855268E+02  0.00000000000E+00 0.  1.
      -24    2    1    2    0    0  0.00000000000E+00  0.00000000000E+00  0.12003516950E+03  0.14449288004E+03  0.80434759054E+02 0.  0.
       11    1    3    3    0    0  0.26887093246E+02 -0.23062867435E+02  0.94225935706E+02  0.10066448528E+03  0.00000000000E+00 0. -1.
      -12    1    3    3    0    0 -0.26887093246E+02  0.23062867435E+02  0.25809233794E+02  0.43828394753E+02  0.00000000000E+00 0.  1.
</event>
<event>
 5   0  0.8936300E+00  0.7991821E+02  0.7957747E-01  0.1327785E+00
       -2   -1    0    0    0  501  0.00000000000E+00  0.00000000000E+00  0.98370161672E+02  0.98370161672E+02  0.00000000000E+00 0.  1.
        1   -1    0    0  501    0  0.00000000000E+00  0.00000000000E+00 -0.16231854868E+02  0.16231854868E+02  0.00000000000E+00 0. -1.
      -24    2    1    2    0    0  0.00000000000E+00  0.00000000000E+00  0.82138306804E+02  0.11460201654E+03  0.79918212882E+02 0.  0.
       11    1    3    3    0    0 -0.32117735823E+02  0.46850404894E+01  0.76466466350E+01  0.33346210633E+02  0.00000000000E+00 0. -1.
      -12    1    3    3    0    0  0.32117735823E+02 -0.46850404894E+01  0.74491660169E+02  0.81255805907E+02  0.00000000000E+00 0.  1.
</event>
<event>
 5   0  0.8936300E+00  0.8076450E+02  0.7957747E-01  0.1325523E+00
       -2   -1    0    0    0  501  0.00000000000E+00  0.00000000000E+00  0.65247100188E+02  0.65247100188E+02  0.00000000000E+00 0.  1.
        1   -1    0    0  501    0  0.00000000000E+00  0.00000000000E+00 -0.24993081260E+02  0.24993081260E+02  0.00000000000E+00 0. -1.
      -24    2    1    2    0    0  0.00000000000E+00  0.00000000000E+00  0.40254018928E+02  0.90240181448E+02  0.80764499057E+02 0.  0.
       11    1    3    3    0    0 -0.16177983184E+02 -0.21130864321E+02 -0.13808879704E+02  0.29982090080E+02  0.00000000000E+00 0. -1.
      -12    1    3    3    0    0  0.16177983184E+02  0.21130864321E+02  0.54062898632E+02  0.60258091369E+02  0.00000000000E+00 0.  1.
</event>
<event>
 5   0  0.8936300E+00  0.7981518E+02  0.7957747E-01  0.1328062E+00
        1   -1    0    0  501    0  0.00000000000E+00  0.00000000000E+00  0.28165018290E+03  0.28165018290E+03  0.00000000000E+00 0. -1.
       -2   -1    0    0    0  501  0.00000000000E+00  0.00000000000E+00 -0.56545885810E+01  0.56545885810E+01  0.00000000000E+00 0.  1.
      -24    2    1    2    0    0  0.00000000000E+00  0.00000000000E+00  0.27599559432E+03  0.28730477148E+03  0.79815184221E+02 0.  0.
       11    1    3    3    0    0  0.17803147190E+02  0.33868988335E+02  0.97184411047E+02  0.10444553687E+03  0.00000000000E+00 0. -1.
      -12    1    3    3    0    0 -0.17803147190E+02 -0.33868988335E+02  0.17881118327E+03  0.18285923462E+03  0.00000000000E+00 0.  1.
</event>
<event>
 5   0  0.8936300E+00  0.8911279E+02  0.7957747E-01  0.1304765E+00
        1   -1    0    0  501    0  0.00000000000E+00  0.00000000000E+00  0.15866845014E+02  0.15866845014E+02  0.00000000000E+00 0. -1.
       -2   -1    0    0    0  501  0.00000000000E+00  0.00000000000E+00 -0.12512080300E+03  0.12512080300E+03  0.00000000000E+00 0.  1.
      -24    2    1    2    0    0  0.00000000000E+00  0.00000000000E+00 -0.10925395799E+03  0.14098764801E+03  0.89112791208E+02 0.  0.
       11    1    3    3    0    0  0.32745604339E+02  0.17429703567E+02 -0.15576882308E+02  0.40233175769E+02  0.00000000000E+00 0. -1.
      -12    1    3    3    0    0 -0.32745604339E+02 -0.17429703567E+02 -0.93677075677E+02  0.10075447225E+03  0.00000000000E+00 0.  1.
</event>
<event>
 5   0  0.8936300E+00  0.8214419E+02  0.7957747E-01  0.1321901E+00
        1   -1    0    0  501    0  0.00000000000E+00  0.00000000000E+00  0.80695702336E+01  0.80695702336E+01  0.00000000000E+00 0. -1.
       -2   -1    0    0    0  501  0.00000000000E+00  0.00000000000E+00 -0.20904668111E+03  0.20904668111E+03  0.00000000000E+00 0.  1.
      -24    2    1    2    0    0  0.00000000000E+00  0.00000000000E+00 -0.20097711087E+03  0.21711625134E+03  0.82144187264E+02 0.  0.
       11    1    3    3    0    0 -0.84487869959E+01  0.30093684417E+02 -0.30065377032E+02  0.43369790633E+02  0.00000000000E+00 0. -1.
      -12    1    3    3    0    0  0.84487869959E+01 -0.30093684417E+02 -0.17091173384E+03  0.17374646071E+03  0.00000000000E+00 0.  1.
</event>
<event>
 5   0  0.8936300E+00  0.8117342E+02  0.7957747E-01  0.1324441E+00
        1   -1    0    0  501    0  0.00000000000E+00  0.00000000000E+00  0.41004435759E+02  0.41004435759E+02  0.00000000000E+00 0. -1.
       -2   -1    0    0    0  501  0.00000000000E+00  0.00000000000E+00 -0.40173235359E+02  0.40173235359E+02  0.00000000000E+00 0.  1.
      -24    2    1    2    0    0  0.00000000000E+00  0.00000000000E+00  0.83120039922E+00  0.81177671118E+02  0.81173415562E+02 0.  0.
       11    1    3    3    0    0  0.35764998239E+02 -0.17017266833E+02  0.92793813433E+01  0.40679594241E+02  0.00000000000E+00 0. -1.
      -12    1    3    3    0    0 -0.35764998239E+02  0.17017266833E+02 -0.84481809441E+01  0.40498076877E+02  0.00000000000E+00 0.  1.
</event>
<event>
 5   0  0.8936300E+00  0.7966281E+02  0.7957747E-01  0.1328474E+00
        1   -1    0    0  501    0  0.00000000000E+00  0.00000000000E+00  0.20538821145E+03  0.20538821145E+03  0.00000000000E+00 0. -1.
       -2   -1    0    0    0  501  0.00000000000E+00  0.00000000000E+00 -0.77245954489E+01  0.77245954489E+01  0.00000000000E+00 0.  1.
      -24    2    1    2    0    0  0.00000000000E+00  0.00000000000E+00  0.19766361601E+03  0.21311280690E+03  0.79662810481E+02 0.  0.
       11    1    3    3    0    0  0.31510434265E+01 -0.38181297857E+02  0.12799013658E+03  0.13360095674E+03  0.00000000000E+00 0. -1.
      -12    1    3    3    0    0 -0.31510434265E+01  0.38181297857E+02  0.69673479424E+02  0.79511850159E+02  0.00000000000E+00 0.  1.
</event>
<event>
 5   0  0.8936300E+00  0.8317870E+02  0.7957747E-01  0.1319238E+00
        1   -1    0    0  501    0  0.00000000000E+00  0.00000000000E+00  0.81152333556E+02  0.81152333556E+02  0.00000000000E+00 0. -1.
       -2   -1    0    0    0  501  0.00000000000E+00  0.00000000000E+00 -0.21313913700E+02  0.21313913700E+02  0.00000000000E+00 0.  1.
      -24    2    1    2    0    0  0.00000000000E+00  0.00000000000E+00  0.59838419856E+02  0.10246624726E+03  0.83178695205E+02 0.  0.
       11    1    3    3    0    0 -0.79038243101E+01  0.27116962753E+02  0.67524354353E+02  0.73193842217E+02  0.00000000000E+00 0. -1.
      -12    1    3    3    0    0  0.79038243101E+01 -0.27116962753E+02 -0.76859344977E+01  0.29272405039E+02  0.00000000000E+00 0.  1.
</event>
<event>
 5   0  0.8936300E+00  0.7974247E+02  0.7957747E-01  0.1328259E+00
        1   -1    0    0  501    0  0.00000000000E+00  0.00000000000E+00  0.77812961866E+02  0.77812961866E+02  0.00000000000E+00 0. -1.
       -2   -1    0    0    0  501  0.00000000000E+00  0.00000000000E+00 -0.20429957860E+02  0.20429957860E+02  0.00000000000E+00 0.  1.
      -24    2    1    2    0    0  0.00000000000E+00  0.00000000000E+00  0.57383004006E+02  0.98242919725E+02  0.79742473798E+02 0.  0.
       11    1    3    3    0    0 -0.14756095668E+02 -0.15866365421E+02  0.69926451813E+02  0.73206506365E+02  0.00000000000E+00 0. -1.
      -12    1    3    3    0    0  0.14756095668E+02  0.15866365421E+02 -0.12543447807E+02  0.25036413360E+02  0.00000000000E+00 0.  1.
</event>
<event>
 5   0  0.8936300E+00  0.8107523E+02  0.7957747E-01  0.1324700E+00
        1   -1    0    0  501    0  0.00000000000E+00  0.00000000000E+00  0.12277460200E+03  0.12277460200E+03  0.00000000000E+00 0. -1.
       -2   -1    0    0    0  501  0.00000000000E+00  0.00000000000E+00 -0.13384677026E+02  0.13384677026E+02  0.00000000000E+00 0.  1.
      -24    2    1    2    0    0  0.00000000000E+00  0.00000000000E+00  0.10938992498E+03  0.13615927903E+03  0.81075234069E+02 0.  0.
       11    1    3    3    0    0  0.27939564018E+02  0.24440397538E+01  0.10385077650E+03  0.10757126172E+03  0.00000000000E+00 0. -1.
      -12    1    3    3    0    0 -0.27939564018E+02 -0.24440397538E+01  0.55391484741E+01  0.28588017309E+02  0.00000000000E+00 0.  1.
</event>
<event>
 5   0  0.8936300E+00  0.8144819E+02  0.7957747E-01  0.1323718E+00
        1   -1    0    0  501    0  0.00000000000E+00  0.00000000000E+00  0.58214246786E+02  0.58214246786E+02  0.00000000000E+00 0. -1.
       -2   -1    0    0    0  501  0.00000000000E+00  0.00000000000E+00 -0.28488764513E+02  0.28488764513E+02  0.00000000000E+00 0.  1.
      -24    2    1    2    0    0  0.00000000000E+00  0.00000000000E+00  0.29725482274E+02  0.86703011299E+02  0.81448191336E+02 0.  0.
       11    1    3    3    0    0  0.23558278946E+02  0.32147548140E+02  0.23768789203E+02  0.46404877960E+02  0.00000000000E+00 0. -1.
      -12    1    3    3    0    0 -0.23558278946E+02 -0.32147548140E+02  0.59566930703E+01  0.40298133339E+02  0.00000000000E+00 0.  1.
</event>
<event>
 5   0  0.8936300E+00  0.7502354E+02  0.7957747E-01  0.1341521E+00
        1   -1    0    0  501    0  0.00000000000E+00  0.00000000000E+00  0.10293859378E+02  0.10293859378E+02  0.00000000000E+00 0. -1.
       -2   -1    0    0    0  501  0.00000000000E+00  0.00000000000E+00 -0.13669634880E+03  0.13669634880E+03  0.00000000000E+00 0.  1.
      -24    2    1    2    0    0  0.00000000000E+00  0.00000000000E+00 -0.12640248942E+03  0.14699020817E+03  0.75023542756E+02 0.  0.
       11    1    3    3    0    0  0.28246605159E+02  0.10795179822E+02 -0.19710810430E+02  0.36096019977E+02  0.00000000000E+00 0. -1.
      -12    1    3    3    0    0 -0.28246605159E+02 -0.10795179822E+02 -0.10669167899E+03  0.11089418820E+03  0.00000000000E+00 0.  1.
</event>
<event>
 5   0  0.8936300E+00  0.8005894E+02  0.7957747E-01  0.1327406E+00
        1   -1    0    0  501    0  0.00000000000E+00  0.00000000000E+00  0.18328260032E+03  0.18328260032E+03  0.00000000000E+00 0. -1.
       -2   -1    0    0    0  501  0.00000000000E+00  0.00000000000E+00 -0.87425565818E+01  0.87425565818E+01  0.00000000000E+00 0.  1.
      -24    2    1    2    0    0  0.00000000000E+00  0.00000000000E+00  0.17454004374E+03  0.19202515691E+03  0.80058940882E+02 0.  0.
       11    1    3    3    0    0  0.29836772530E+02  0.22430585237E+02  0.12194494970E+03  0.12753013333E+03  0.00000000000E+00 0. -1.
      -12    1    3    3    0    0 -0.29836772530E+02 -0.22430585237E+02  0.52595094042E+02  0.64495023578E+02  0.00000000000E+00 0.  1.
</event>
<event>
 5   0  0.8936300E+00  0.8106475E+02  0.7957747E-01  0.1324728E+00
       -4   -1    0    0    0  501  0.00000000000E+00  0.00000000000E+00  0.98663590473E+02  0.98663590473E+02  0.00000000000E+00 0.  1.
        3   -1    0    0  501    0  0.00000000000E+00  0.00000000000E+00 -0.16651262073E+02  0.16651262073E+02  0.00000000000E+00 0. -1.
      -24    2    1    2    0    0  0.00000000000E+00  0.00000000000E+00  0.82012328400E+02  0.11531485255E+03  0.81064747013E+02 0.  0.
       11    1    3    3    0    0  0.11630107825E+02  0.18758084352E+02 -0.73536721669E+01  0.23263740691E+02  0.00000000000E+00 0. -1.
      -12    1    3    3    0    0 -0.11630107825E+02 -0.18758084352E+02  0.89366000567E+02  0.92051111856E+02  0.00000000000E+00 0.  1.
</event>
<event>
 5   0  0.8936300E+00  0.7977337E+02  0.7957747E-01  0.1328175E+00
        1   -1    0    0  501    0  0.00000000000E+00  0.00000000000E+00  0.45395270191E+01  0.45395270191E+01  0.00000000000E+00 0. -1.
       -2   -1    0    0    0  501  0.00000000000E+00  0.00000000000E+00 -0.35046551240E+03  0.35046551240E+03  0.00000000000E+00 0.  1.
      -24    2    1    2    0    0  0.00000000000E+00  0.00000000000E+00 -0.34592598538E+03  0.35500503942E+03  0.79773370564E+02 0.  0.
       11    1    3    3    0    0 -0.15041892158E+02 -0.10954175149E+02 -0.15959945481E+02  0.24514737050E+02  0.00000000000E+00 0. -1.
      -12    1    3    3    0    0  0.15041892158E+02  0.10954175149E+02 -0.32996603990E+03  0.33049030237E+03  0.00000000000E+00 0.  1.
</event>
<event>
 5   0  0.8936300E+00  0.8292729E+02  0.7957747E-01  0.1319881E+00
       -2   -1    0    0    0  501  0.00000000000E+00  0.00000000000E+00  0.13851430076E+02  0.13851430076E+02  0.00000000000E+00 0.  1.
        1   -1    0    0  501    0  0.00000000000E+00  0.00000000000E+00 -0.12411959614E+03  0.12411959614E+03  0.00000000000E+00 0. -1.
      -24    2    1    2    0    0  0.00000000000E+00  0.00000000000E+00 -0.11026816607E+03  0.13797102622E+03  0.82927291212E+02 0.  0.
       11    1    3    3    0    0 -0.12420569807E+02  0.16941672139E+02 -0.11461068842E+03  0.11651995842E+03  0.00000000000E+00 0. -1.
      -12    1    3    3    0    0  0.12420569807E+02 -0.16941672139E+02  0.43425223578E+01  0.21451067797E+02  0.00000000000E+00 0.  1.
</event>
<event>
 5   0  0.8936300E+00  0.9446530E+02  0.7957747E-01  0.1292759E+00
        1   -1    0    0  501    0  0.00000000000E+00  0.00000000000E+00  0.51777426214E+01  0.51777426214E+01  0.00000000000E+00 0. -1.
       -2   -1    0    0    0  501  0.00000000000E+00  0.00000000000E+00 -0.43086789929E+03  0.43086789929E+03  0.00000000000E+00 0.  1.
      -24    2    1    2    0    0  0.00000000000E+00  0.00000000000E+00 -0.42569015667E+03  0.43604564191E+03  0.94465297043E+02 0.  0.
       11    1    3    3    0    0  0.85745489939E+00 -0.26120362259E+02 -0.31237844036E+02  0.40728509099E+02  0.00000000000E+00 0. -1.
      -12    1    3    3    0    0 -0.85745489939E+00  0.26120362259E+02 -0.39445231264E+03  0.39531713282E+03  0.00000000000E+00 0.  1.
</event>
<event>
 5   0  0.8936300E+00  0.6126321E+02  0.7957747E-01  0.1387543E+00
        1   -1    0    0  501    0  0.00000000000E+00  0.00000000000E+00  0.81126989799E+01  0.81126989799E+01  0.00000000000E+00 0. -1.
       -2   -1    0    0    0  501  0.00000000000E+00  0.00000000000E+00 -0.11565760423E+03  0.11565760423E+03  0.00000000000E+00 0.  1.
      -24    2    1    2    0    0  0.00000000000E+00  0.00000000000E+00 -0.10754490525E+03  0.12377030321E+03  0.61263213361E+02 0.  0.
       11    1    3    3    0    0 -0.17640659554E+02 -0.11239707994E+02 -0.98982654973E+02  0.10116862108E+03  0.00000000000E+00 0. -1.
      -12    1    3    3    0    0  0.17640659554E+02  0.11239707994E+02 -0.85622502737E+01  0.22601682129E+02  0.00000000000E+00 0.  1.
</event>
<event>
 5   0  0.8936300E+00  0.9148867E+02  0.7957747E-01  0.1299322E+00
        3   -1    0    0  501    0  0.00000000000E+00  0.00000000000E+00  0.83895605510E+02  0.83895605510E+02  0.00000000000E+00 0. -1.
       -4   -1    0    0    0  501  0.00000000000E+00  0.00000000000E+00 -0.24942236155E+02  0.24942236155E+02  0.00000000000E+00 0.  1.
      -24    2    1    2    0    0  0.00000000000E+00  0.00000000000E+00  0.58953369354E+02  0.10883784166E+03  0.91488666074E+02 0.  0.
       11    1    3    3    0    0  0.31365819655E+02 -0.12916721450E+02  0.65986713935E+02  0.74195031853E+02  0.00000000000E+00 0. -1.
      -12    1    3    3    0    0 -0.31365819655E+02  0.12916721450E+02 -0.70333445809E+01  0.34642809812E+02  0.00000000000E+00 0.  1.
</event>
<event>
 5   0  0.8936300E+00  0.8058209E+02  0.7957747E-01  0.1326008E+00
        1   -1    0    0  501    0  0.00000000000E+00  0.00000000000E+00  0.10190310847E+02  0.10190310847E+02  0.00000000000E+00 0. -1.
       -2   -1    0    0    0  501  0.00000000000E+00  0.00000000000E+00 -0.15930508211E+03  0.15930508211E+03  0.00000000000E+00 0.  1.
      -24    2    1    2    0    0  0.00000000000E+00  0.00000000000E+00 -0.14911477127E+03  0.16949539296E+03  0.80582089976E+02 0.  0.
       11    1    3    3    0    0 -0.25580027328E+01 -0.30018959189E+02 -0.18286864054E+02  0.35243306963E+02  0.00000000000E+00 0. -1.
      -12    1    3    3    0    0  0.25580027328E+01  0.30018959189E+02 -0.13082790721E+03  0.13425208600E+03  0.00000000000E+00 0.  1.
</event>
<event>
 5   0  0.8936300E+00  0.8118060E+02  0.7957747E-01  0.1324422E+00
        1   -1    0    0  501    0  0.00000000000E+00  0.00000000000E+00  0.47702924543E+01  0.47702924543E+01  0.00000000000E+00 0. -1.
       -2   -1    0    0    0  501  0.00000000000E+00  0.00000000000E+00 -0.34538182225E+03  0.34538182225E+03  0.00000000000E+00 0.  1.
      -24    2    1    2    0    0  0.00000000000E+00  0.00000000000E+00 -0.34061152980E+03  0.35015211471E+03  0.81180596217E+02 0.  0.
       11    1    3    3    0    0  0.68193923864E+01  0.32744912250E+02 -0.71116146925E+02  0.78589056135E+02  0.00000000000E+00 0. -1.
      -12    1    3    3    0    0 -0.68193923864E+01 -0.32744912250E+02 -0.26949538287E+03  0.27156305857E+03  0.00000000000E+00 0.  1.
</event>
<event>
 5   0  0.8936300E+00  0.8011133E+02  0.7957747E-01  0.1327266E+00
        1   -1    0    0  501    0  0.00000000000E+00  0.00000000000E+00  0.38054176773E+02  0.38054176773E+02  0.00000000000E+00 0. -1.
       -2   -1    0    0    0  501  0.00000000000E+00  0.00000000000E+00 -0.42162422063E+02  0.42162422063E+02  0.00000000000E+00 0.  1.
      -24    2    1    2    0    0  0.00000000000E+00  0.00000000000E+00 -0.41082452899E+01  0.80216598836E+02  0.80111329096E+02 0.  0.
       11    1    3    3    0    0  0.17280448824E+02  0.11753605168E+01  0.34110658103E+02  0.38256141731E+02  0.00000000000E+00 0. -1.
      -12    1    3    3    0    0 -0.17280448824E+02 -0.11753605168E+01 -0.38218903393E+02  0.41960457105E+02  0.00000000000E+00 0.  1.
</event>
<event>
 5   0  0.8936300E+00  0.7932508E+02  0.7957747E-01  0.1329389E+00
        1   -1    0    0  501    0  0.00000000000E+00  0.00000000000E+00  0.11873990183E+03  0.11873990183E+03  0.00000000000E+00 0. -1.
       -2   -1    0    0    0  501  0.00000000000E+00  0.00000000000E+00 -0.13248428300E+02  0.13248428300E+02  0.00000000000E+00 0.  1.
      -24    2    1    2    0    0  0.00000000000E+00  0.00000000000E+00  0.10549147353E+03  0.13198833013E+03  0.79325079911E+02 0.  0.
       11    1    3    3    0    0 -0.10549134124E+02  0.21847117516E+02  0.53727676294E+00  0.24266632252E+02  0.00000000000E+00 0. -1.
      -12    1    3    3    0    0  0.10549134124E+02 -0.21847117516E+02  0.10495419677E+03  0.10772169788E+03  0.00000000000E+00 0.  1.
</event>
<event>
 5   0  0.8936300E+00  0.8104290E+02  0.7957747E-01  0.1324785E+00
        1   -1    0    0  501    0  0.00000000000E+00  0.00000000000E+00  0.45727048253E+01  0.45727048253E+01  0.00000000000E+00 0. -1.
       -2   -1    0    0    0  501  0.00000000000E+00  0.00000000000E+00 -0.35908463859E+03  0.35908463859E+03  0.00000000000E+00 0.  1.
      -24    2    1    2    0    0  0.00000000000E+00  0.00000000000E+00 -0.35451193376E+03  0.36365734342E+03  0.81042903688E+02 0.  0.
       11    1    3    3    0    0  0.32449520095E+02  0.24118366312E+02 -0.16511464757E+03  0.16999268746E+03  0.00000000000E+00 0. -1.
      -12    1    3    3    0    0 -0.32449520095E+02 -0.24118366312E+02 -0.18939728620E+03  0.19366465596E+03  0.00000000000E+00 0.  1.
</event>
<event>
 5   0  0.8936300E+00  0.8279358E+02  0.7957747E-01  0.1320224E+00
        1   -1    0    0  501    0  0.00000000000E+00  0.00000000000E+00  0.15158204647E+02  0.15158204647E+02  0.00000000000E+00 0. -1.
       -2   -1    0    0    0  501  0.00000000000E+00  0.00000000000E+00 -0.11305391085E+03  0.11305391085E+03  0.00000000000E+00 0.  1.
      -24    2    1    2    0    0  0.00000000000E+00  0.00000000000E+00 -0.97895706201E+02  0.12821211549E+03  0.82793582282E+02 0.  0.
       11    1    3    3    0    0 -0.83435651443E+01 -0.28539345580E+02 -0.43449799406E+01  0.30049761665E+02  0.00000000000E+00 0. -1.
      -12    1    3    3    0    0  0.83435651443E+01  0.28539345580E+02 -0.93550726261E+02  0.98162353830E+02  0.00000000000E+00 0.  1.
</event>
<event>
 5   0  0.8936300E+00  0.8099047E+02  0.7957747E-01  0.1324924E+00
        3   -1    0    0  501    0  0.00000000000E+00  0.00000000000E+00  0.43353690642E+02  0.43353690642E+02  0.00000000000E+00 0. -1.
       -4   -1    0    0    0  501  0.00000000000E+00  0.00000000000E+00 -0.37825247635E+02  0.37825247635E+02  0.00000000000E+00 0.  1.
      -24    2    1    2    0    0  0.00000000000E+00  0.00000000000E+00  0.55284430070E+01  0.81178938278E+02  0.80990470661E+02 0.  0.
       11    1    3    3    0    0  0.29502504263E+02  0.26897270344E+02  0.95625687852E+01  0.41052449763E+02  0.00000000000E+00 0. -1.
      -12    1    3    3    0    0 -0.29502504263E+02 -0.26897270344E+02 -0.40341257781E+01  0.40126488515E+02  0.00000000000E+00 0.  1.
</event>
<event>
 5   0  0.8936300E+00  0.8221682E+02  0.7957747E-01  0.1321713E+00
       -2   -1    0    0    0  501  0.00000000000E+00  0.00000000000E+00  0.84764293507E+02  0.84764293507E+02  0.00000000000E+00 0.  1.
        1   -1    0    0  501    0  0.00000000000E+00  0.00000000000E+00 -0.19936476578E+02  0.19936476578E+02  0.00000000000E+00 0. -1.
      -24    2    1    2    0    0  0.00000000000E+00  0.00000000000E+00  0.64827816928E+02  0.10470077008E+03  0.82216819500E+02 0.  0.
       11    1    3    3    0    0  0.15278305477E+02  0.33070322582E+02  0.81567514584E+01  0.37331025277E+02  0.00000000000E+00 0. -1.
      -12    1    3    3    0    0 -0.15278305477E+02 -0.33070322582E+02  0.56671065470E+02  0.67369744807E+02  0.00000000000E+00 0.  1.
</event>
<event>
 5   0  0.8936300E+00  0.8023326E+02  0.7957747E-01  0.1326939E+00
        1   -1    0    0  501    0  0.00000000000E+00  0.00000000000E+00  0.14165854685E+02  0.14165854685E+02  0.00000000000E+00 0. -1.
       -2   -1    0    0    0  501  0.00000000000E+00  0.00000000000E+00 -0.11360725924E+03  0.11360725924E+03  0.00000000000E+00 0.  1.
      -24    2    1    2    0    0  0.00000000000E+00  0.00000000000E+00 -0.99441404556E+02  0.12777311393E+03  0.80233258081E+02 0.  0.
       11    1    3    3    0    0  0.28491839792E+02  0.17906294601E+02 -0.14942313375E+02  0.36819737235E+02  0.00000000000E+00 0. -1.
      -12    1    3    3    0    0 -0.28491839792E+02 -0.17906294601E+02 -0.84499091181E+02  0.90953376691E+02  0.00000000000E+00 0.  1.
</event>
<event>
 4   0  0.8936300E+00  0.2733345E+02  0.7957747E-01  0.1607146E+00
        1   -1    0    0  501    0  0.00000000000E+00  0.00000000000E+00  0.42220837990E+01  0.42220837990E+01  0.00000000000E+00 0. -1.
       -2   -1    0    0    0  501  0.00000000000E+00  0.00000000000E+00 -0.44238677647E+02  0.44238677647E+02  0.00000000000E+00 0.  1.
       11    1    1    2    0    0 -0.51383873201E+01  0.92189530260E+01 -0.46145338933E+01  0.11518942755E+02  0.00000000000E+00 0. -1.
      -12    1    1    2    0    0  0.51383873201E+01 -0.92189530260E+01 -0.35402059955E+02  0.36941818691E+02  0.00000000000E+00 0.  1.
</event>
<event>
 5   0  0.8936300E+00  0.8065699E+02  0.7957747E-01  0.1325808E+00
        1   -1    0    0  501    0  0.00000000000E+00  0.00000000000E+00  0.35770971865E+02  0.35770971865E+02  0.00000000000E+00 0. -1.
       -2   -1    0    0    0  501  0.00000000000E+00  0.00000000000E+00 -0.45466681522E+02  0.45466681522E+02  0.00000000000E+00 0.  1.
      -24    2    1    2    0    0  0.00000000000E+00  0.00000000000E+00 -0.96957096566E+01  0.81237653386E+02  0.80656986938E+02 0.  0.
       11    1    3    3    0    0 -0.18757805104E+02  0.93903039697E+01  0.29843605725E+02  0.36478402702E+02  0.00000000000E+00 0. -1.
      -12    1    3    3    0    0  0.18757805104E+02 -0.93903039697E+01 -0.39539315382E+02  0.44759250685E+02  0.00000000000E+00 0.  1.
</event>
<event>
 5   0  0.8936300E+00  0.8071313E+02  0.7957747E-01  0.1325659E+00
        1   -1    0    0  501    0  0.00000000000E+00  0.00000000000E+00  0.14450635447E+03  0.14450635447E+03  0.00000000000E+00 0. -1.
       -2   -1    0    0    0  501  0.00000000000E+00  0.00000000000E+00 -0.11270455077E+02  0.11270455077E+02  0.00000000000E+00 0.  1.
      -24    2    1    2    0    0  0.00000000000E+00  0.00000000000E+00  0.13323589940E+03  0.15577680955E+03  0.80713130939E+02 0.  0.
       11    1    3    3    0    0  0.21718471151E+02  0.15081726865E+02  0.12545945195E+03  0.12821553946E+03  0.00000000000E+00 0. -1.
      -12    1    3    3    0    0 -0.21718471151E+02 -0.15081726865E+02  0.77764474475E+01  0.27561270096E+02  0.00000000000E+00 0.  1.
</event>
<event>
 5   0  0.8936300E+00  0.7415527E+02  0.7957747E-01  0.1344083E+00
        3   -1    0    0  501    0  0.00000000000E+00  0.00000000000E+00  0.37303218742E+02  0.37303218742E+02  0.00000000000E+00 0. -1.
       -4   -1    0    0    0  501  0.00000000000E+00  0.00000000000E+00 -0.36853414851E+02  0.36853414851E+02  0.00000000000E+00 0.  1.
      -24    2    1    2    0    0  0.00000000000E+00  0.00000000000E+00  0.44980389040E+00  0.74156633593E+02  0.74155269417E+02 0.  0.
       11    1    3    3    0    0  0.29376922948E+02  0.10414288189E+02  0.20307352825E+02  0.37200128752E+02  0.00000000000E+00 0. -1.
      -12    1    3    3    0    0 -0.29376922948E+02 -0.10414288189E+02 -0.19857548935E+02  0.36956504841E+02  0.00000000000E+00 0.  1.
</event>
<event>
 5   0  0.8936300E+00  0.8034944E+02  0.7957747E-01  0.1326628E+00
        1   -1    0    0  501    0  0.00000000000E+00  0.00000000000E+00  0.56933048270E+02  0.56933048270E+02  0.00000000000E+00 0. -1.
       -2   -1    0    0    0  501  0.00000000000E+00  0.00000000000E+00 -0.28349229213E+02  0.28349229213E+02  0.00000000000E+00 0.  1.
      -24    2    1    2    0    0  0.00000000000E+00  0.00000000000E+00  0.28583819057E+02  0.85282277482E+02  0.80349437712E+02 0.  0.
       11    1    3    3    0    0  0.15875964325E+02  0.16838723161E+02  0.49147283953E+02  0.54323515726E+02  0.00000000000E+00 0. -1.
      -12    1    3    3    0    0 -0.15875964325E+02 -0.16838723161E+02 -0.20563464895E+02  0.30958761756E+02  0.00000000000E+00 0.  1.
</event>
<event>
 5   0  0.8936300E+00  0.7897824E+02  0.7957747E-01  0.1330335E+00
        1   -1    0    0  501    0  0.00000000000E+00  0.00000000000E+00  0.73293559351E+02  0.73293559351E+02  0.00000000000E+00 0. -1.
       -2   -1    0    0    0  501  0.00000000000E+00  0.00000000000E+00 -0.21275959029E+02  0.21275959029E+02  0.00000000000E+00 0.  1.
      -24    2    1    2    0    0  0.00000000000E+00  0.00000000000E+00  0.52017600323E+02  0.94569518380E+02  0.78978244240E+02 0.  0.
       11    1    3    3    0    0 -0.34055584525E+02 -0.84806869234E+01  0.47684471889E+02  0.59207379163E+02  0.00000000000E+00 0. -1.
      -12    1    3    3    0    0  0.34055584525E+02  0.84806869234E+01  0.43331284338E+01  0.35362139217E+02  0.00000000000E+00 0.  1.
</event>
<event>
 5   0  0.8936300E+00  0.8016759E+02  0.7957747E-01  0.1327115E+00
        1   -1    0    0  501    0  0.00000000000E+00  0.00000000000E+00  0.54866505826E+01  0.54866505826E+01  0.00000000000E+00 0. -1.
       -2   -1    0    0    0  501  0.00000000000E+00  0.00000000000E+00 -0.29284000111E+03  0.29284000111E+03  0.00000000000E+00 0.  1.
      -24    2    1    2    0    0  0.00000000000E+00  0.00000000000E+00 -0.28735335053E+03  0.29832665169E+03  0.80167593520E+02 0.  0.
       11    1    3    3    0    0  0.13210875604E+02 -0.65900565959E+00 -0.28688836108E+01  0.13534844508E+02  0.00000000000E+00 0. -1.
      -12    1    3    3    0    0 -0.13210875604E+02  0.65900565959E+00 -0.28448446692E+03  0.28479180718E+03  0.00000000000E+00 0.  1.
</event>
<event>
 5   0  0.8936300E+00  0.7947042E+02  0.7957747E-01  0.1328995E+00
        1   -1    0    0  501    0  0.00000000000E+00  0.00000000000E+00  0.11185162853E+02  0.11185162853E+02  0.00000000000E+00 0. -1.
       -2   -1    0    0    0  501  0.00000000000E+00  0.00000000000E+00 -0.14115903946E+03  0.14115903946E+03  0.00000000000E+00 0.  1.
      -24    2    1    2    0    0  0.00000000000E+00  0.00000000000E+00 -0.12997387661E+03  0.15234420231E+03  0.79470418258E+02 0.  0.
       11    1    3    3    0    0 -0.33253208130E+02  0.20700879045E+02 -0.52186852779E+02  0.65251588848E+02  0.00000000000E+00 0. -1.
      -12    1    3    3    0    0  0.33253208130E+02 -0.20700879045E+02 -0.77787023829E+02  0.87092613466E+02  0.00000000000E+00 0.  1.
</event>
<event>
 5   0  0.8936300E+00  0.8097472E+02  0.7957747E-01  0.1324966E+00
        1   -1    0    0  501    0  0.00000000000E+00  0.00000000000E+00  0.31292617270E+02  0.31292617270E+02  0.00000000000E+00 0. -1.
       -2   -1    0    0    0  501  0.00000000000E+00  0.00000000000E+00 -0.52383803934E+02  0.52383803934E+02  0.00000000000E+00 0.  1.
      -24    2    1    2    0    0  0.00000000000E+00  0.00000000000E+00 -0.21091186664E+02  0.83676421204E+02  0.80974720195E+02 0.  0.
       11    1    3    3    0    0  0.42182110612E+01  0.40180518038E+02 -0.78195870551E+01  0.41151102975E+02  0.00000000000E+00 0. -1.
      -12    1    3    3    0    0 -0.42182110612E+01 -0.40180518038E+02 -0.13271599609E+02  0.42525318229E+02  0.00000000000E+00 0.  1.
</event>
<event>
 5   0  0.8936300E+00  0.8474237E+02  0.7957747E-01  0.1315295E+00
       -2   -1    0    0    0  501  0.00000000000E+00  0.00000000000E+00  0.13397485059E+03  0.13397485059E+03  0.00000000000E+00 0.  1.
        1   -1    0    0  501    0  0.00000000000E+00  0.00000000000E+00 -0.13400403944E+02  0.13400403944E+02  0.00000000000E+00 0. -1.
      -24    2    1    2    0    0  0.00000000000E+00  0.00000000000E+00  0.12057444665E+03  0.14737525453E+03  0.84742365230E+02 0.  0.
       11    1    3    3    0    0  0.18843358062E+02  0.24935968034E+02  0.10534361602E+02  0.32982532032E+02  0.00000000000E+00 0. -1.
      -12    1    3    3    0    0 -0.18843358062E+02 -0.24935968034E+02  0.11004008504E+03  0.11439272250E+03  0.00000000000E+00 0.  1.
</event>
<event>
 5   0  0.8936300E+00  0.8026429E+02  0.7957747E-01  0.1326856E+00
        1   -1    0    0  501    0  0.00000000000E+00  0.00000000000E+00  0.16474989511E+02  0.16474989511E+02  0.00000000000E+00 0. -1.
       -2   -1    0    0    0  501  0.00000000000E+00  0.00000000000E+00 -0.97759642007E+02  0.97759642007E+02  0.00000000000E+00 0.  1.
      -24    2    1    2    0    0  0.00000000000E+00  0.00000000000E+00 -0.81284652497E+02  0.11423463152E+03  0.80264290358E+02 0.  0.
       11    1    3    3    0    0 -0.14371499910E+02 -0.15040917713E+02  0.82020818975E+01  0.22361649375E+02  0.00000000000E+00 0. -1.
      -12    1    3    3    0    0  0.14371499910E+02  0.15040917713E+02 -0.89486734394E+02  0.91872982143E+02  0.00000000000E+00 0.  1.
</event>
<event>
 4   0  0.8936300E+00  0.4494142E+02  0.7957747E-01  0.1464355E+00
        1   -1    0    0  501    0  0.00000000000E+00  0.00000000000E+00  0.56637973456E+01  0.56637973456E+01  0.00000000000E+00 0. -1.
       -2   -1    0    0    0  501  0.00000000000E+00  0.00000000000E+00 -0.89150949443E+02  0.89150949443E+02  0.00000000000E+00 0.  1.
       11    1    1    2    0    0 -0.82135884955E+01  0.64921938195E+01  0.20373814495E+00  0.10471538846E+02  0.00000000000E+00 0. -1.
      -12    1    1    2    0    0  0.82135884955E+01 -0.64921938195E+01 -0.83690890243E+02  0.84343207943E+02  0.00000000000E+00 0.  1.
</event>
<event>
 5   0  0.8936300E+00  0.7833468E+02  0.7957747E-01  0.1332104E+00
        1   -1    0    0  501    0  0.00000000000E+00  0.00000000000E+00  0.19766402417E+02  0.19766402417E+02  0.00000000000E+00 0. -1.
       -2   -1    0    0    0  501  0.00000000000E+00  0.00000000000E+00 -0.77610515889E+02  0.77610515889E+02  0.00000000000E+00 0.  1.
      -24    2    1    2    0    0  0.00000000000E+00  0.00000000000E+00 -0.57844113472E+02  0.97376918306E+02  0.78334684243E+02 0.  0.
       11    1    3    3    0    0  0.35672311888E+02  0.14218485320E+02 -0.19341279561E+02  0.42997258695E+02  0.00000000000E+00 0. -1.
      -12    1    3    3    0    0 -0.35672311888E+02 -0.14218485320E+02 -0.38502833911E+02  0.54379659611E+02  0.00000000000E+00 0.  1.
</event>
<event>
 5   0  0.8936300E+00  0.8470580E+02  0.7957747E-01  0.1315386E+00
        1   -1    0    0  501    0  0.00000000000E+00  0.00000000000E+00  0.81316878143E+01  0.81316878143E+01  0.00000000000E+00 0. -1.
       -2   -1    0    0    0  501  0.00000000000E+00  0.00000000000E+00 -0.22058987458E+03  0.22058987458E+03  0.00000000000E+00 0.  1.
      -24    2    1    2    0    0  0.00000000000E+00  0.00000000000E+00 -0.21245818677E+03  0.22872156240E+03  0.84705796617E+02 0.  0.
       11    1    3    3    0    0  0.15091860645E+02  0.30577215862E+02 -0.38399127433E+02  0.51353903213E+02  0.00000000000E+00 0. -1.
      -12    1    3    3    0    0 -0.15091860645E+02 -0.30577215862E+02 -0.17405905934E+03  0.17736765919E+03  0.00000000000E+00 0.  1.
</event>
<event>
 5   0  0.8936300E+00  0.7912360E+02  0.7957747E-01  0.1329938E+00
        1   -1    0    0  501    0  0.00000000000E+00  0.00000000000E+00  0.51110467158E+02  0.51110467158E+02  0.00000000000E+00 0. -1.
       -2   -1    0    0    0  501  0.00000000000E+00  0.00000000000E+00 -0.30622615993E+02  0.30622615993E+02  0.00000000000E+00 0.  1.
      -24    2    1    2    0    0  0.00000000000E+00  0.00000000000E+00  0.20487851165E+02  0.81733083151E+02  0.79123604797E+02 0.  0.
       11    1    3    3    0    0  0.42127907901E+01  0.37595567937E+02  0.22199829720E+02  0.43863501620E+02  0.00000000000E+00 0. -1.
      -12    1    3    3    0    0 -0.42127907901E+01 -0.37595567937E+02 -0.17119785546E+01  0.37869581531E+02  0.00000000000E+00 0.  1.
</event>
<event>
 5   0  0.8936300E+00  0.8289747E+02  0.7957747E-01  0.1319958E+00
        1   -1    0    0  501    0  0.00000000000E+00  0.00000000000E+00  0.19587797136E+03  0.19587797136E+03  0.00000000000E+00 0. -1.
       -2   -1    0    0    0  501  0.00000000000E+00  0.00000000000E+00 -0.87707550014E+01  0.87707550014E+01  0.00000000000E+00 0.  1.
      -24    2    1    2    0    0  0.00000000000E+00  0.00000000000E+00  0.18710721635E+03  0.20464872636E+03  0.82897471540E+02 0.  0.
       11    1    3    3    0    0  0.12622752882E+02  0.39477754528E+02  0.92533632926E+02  0.10139181533E+03  0.00000000000E+00 0. -1.
      -12    1    3    3    0    0 -0.12622752882E+02 -0.39477754528E+02  0.94573583429E+02  0.10325691103E+03  0.00000000000E+00 0.  1.
</event>
<event>
 5   0  0.8936300E+00  0.8135639E+02  0.7957747E-01  0.1323959E+00
        1   -1    0    0  501    0  0.00000000000E+00  0.00000000000E+00  0.75799478248E+01  0.75799478248E+01  0.00000000000E+00 0. -1.
       -2   -1    0    0    0  501  0.00000000000E+00  0.00000000000E+00 -0.21830172417E+03  0.21830172417E+03  0.00000000000E+00 0.  1.
      -24    2    1    2    0    0  0.00000000000E+00  0.00000000000E+00 -0.21072177634E+03  0.22588167199E+03  0.81356393216E+02 0.  0.
       11    1    3    3    0    0  0.12198521106E+02  0.19509296452E+01  0.22458692674E+01  0.12556033307E+02  0.00000000000E+00 0. -1.
      -12    1    3    3    0    0 -0.12198521106E+02 -0.19509296452E+01 -0.21296764561E+03  0.21332563869E+03  0.00000000000E+00 0.  1.
</event>
<event>
 5   0  0.8936300E+00  0.8086858E+02  0.7957747E-01  0.1325247E+00
       -2   -1    0    0    0  501  0.00000000000E+00  0.00000000000E+00  0.11654308854E+03  0.11654308854E+03  0.00000000000E+00 0.  1.
        1   -1    0    0  501    0  0.00000000000E+00  0.00000000000E+00 -0.14028561496E+02  0.14028561496E+02  0.00000000000E+00 0. -1.
      -24    2    1    2    0    0  0.00000000000E+00  0.00000000000E+00  0.10251452704E+03  0.13057165003E+03  0.80868581897E+02 0.  0.
       11    1    3    3    0    0 -0.63321672628E+01 -0.10615118150E+02 -0.10903429630E+02  0.16482167736E+02  0.00000000000E+00 0. -1.
      -12    1    3    3    0    0  0.63321672628E+01  0.10615118150E+02  0.11341795667E+03  0.11408948230E+03  0.00000000000E+00 0.  1.
</event>
<event>
 5   0  0.8936300E+00  0.8016907E+02  0.7957747E-01  0.1327111E+00
        1   -1    0    0  501    0  0.00000000000E+00  0.00000000000E+00  0.10329971071E+02  0.10329971071E+02  0.00000000000E+00 0. -1.
       -2   -1    0    0    0  501  0.00000000000E+00  0.00000000000E+00 -0.15554446897E+03  0.15554446897E+03  0.00000000000E+00 0.  1.
      -24    2    1    2    0    0  0.00000000000E+00  0.00000000000E+00 -0.14521449790E+03  0.16587444004E+03  0.80169067967E+02 0.  0.
       11    1    3    3    0    0 -0.16855108283E+02  0.23397083516E+01  0.24856124812E+01  0.17197301527E+02  0.00000000000E+00 0. -1.
      -12    1    3    3    0    0  0.16855108283E+02 -0.23397083516E+01 -0.14770011038E+03  0.14867713851E+03  0.00000000000E+00 0.  1.
</event>
<event>
 5   0  0.8936300E+00  0.8208027E+02  0.7957747E-01  0.1322067E+00
        1   -1    0    0  501    0  0.00000000000E+00  0.00000000000E+00  0.58637258254E+01  0.58637258254E+01  0.00000000000E+00 0. -1.
       -2   -1    0    0    0  501  0.00000000000E+00  0.00000000000E+00 -0.28723929779E+03  0.28723929779E+03  0.00000000000E+00 0.  1.
      -24    2    1    2    0    0  0.00000000000E+00  0.00000000000E+00 -0.28137557197E+03  0.29310302362E+03  0.82080265314E+02 0.  0.
       11    1    3    3    0    0  0.40778573820E+02 -0.26253298717E+01 -0.12708630962E+03  0.13349424906E+03  0.00000000000E+00 0. -1.
      -12    1    3    3    0    0 -0.40778573820E+02  0.26253298717E+01 -0.15428926235E+03  0.15960877456E+03  0.00000000000E+00 0.  1.
</event>
<event>
 5   0  0.8936300E+00  0.7917929E+02  0.7957747E-01  0.1329786E+00
        1   -1    0    0  501    0  0.00000000000E+00  0.00000000000E+00  0.90550848185E+01  0.90550848185E+01  0.00000000000E+00 0. -1.
       -2   -1    0    0    0  501  0.00000000000E+00  0.00000000000E+00 -0.17308947474E+03  0.17308947474E+03  0.00000000000E+00 0.  1.
      -24    2    1    2    0    0  0.00000000000E+00  0.00000000000E+00 -0.16403438993E+03  0.18214455956E+03  0.79179287064E+02 0.  0.
       11    1    3    3    0    0  0.34019526037E+02  0.93923846158E+01 -0.12328336384E+03  0.12823545859E+03  0.00000000000E+00 0. -1.
      -12    1    3    3    0    0 -0.34019526037E+02 -0.93923846158E+01 -0.40751026089E+02  0.53909100974E+02  0.00000000000E+00 0.  1.
</event>
<event>
 5   0  0.8936300E+00  0.8229891E+02  0.7957747E-01  0.1321500E+00
        1   -1    0    0  501    0  0.00000000000E+00  0.00000000000E+00  0.15293675048E+03  0.15293675048E+03  0.00000000000E+00 0. -1.
       -2   -1    0    0    0  501  0.00000000000E+00  0.00000000000E+00 -0.11071750527E+02  0.11071750527E+02  0.00000000000E+00 0.  1.
      -24    2    1    2    0    0  0.00000000000E+00  0.00000000000E+00  0.14186499996E+03  0.16400850101E+03  0.82298907594E+02 0.  0.
       11    1    3    3    0    0 -0.26845308106E+02  0.30095189305E+02  0.54634221918E+02  0.67906473853E+02  0.00000000000E+00 0. -1.
      -12    1    3    3    0    0  0.26845308106E+02 -0.30095189305E+02  0.87230778038E+02  0.96102027157E+02  0.00000000000E+00 0.  1.
</event>
<event>
 5   0  0.8936300E+00  0.8068299E+02  0.7957747E-01  0.1325739E+00
        1   -1    0    0  501    0  0.00000000000E+00  0.00000000000E+00  0.82360468160E+02  0.82360468160E+02  0.00000000000E+00 0. -1.
       -2   -1    0    0    0  501  0.00000000000E+00  0.00000000000E+00 -0.19759920448E+02  0.19759920448E+02  0.00000000000E+00 0.  1.
      -24    2    1    2    0    0  0.00000000000E+00  0.00000000000E+00  0.62600547712E+02  0.10212038861E+03  0.80682991985E+02 0.  0.
       11    1    3    3    0    0  0.36715068910E+02  0.14294685228E+02  0.20331548037E+02  0.44336284874E+02  0.00000000000E+00 0. -1.
      -12    1    3    3    0    0 -0.36715068910E+02 -0.14294685228E+02  0.42268999675E+02  0.57784103734E+02  0.00000000000E+00 0.  1.
</event>
<event>
 5   0  0.8936300E+00  0.8021389E+02  0.7957747E-01  0.1326991E+00
        1   -1    0    0  501    0  0.00000000000E+00  0.00000000000E+00  0.84696738631E+01  0.84696738631E+01  0.00000000000E+00 0. -1.
       -2   -1    0    0    0  501  0.00000000000E+00  0.00000000000E+00 -0.18992079265E+03  0.18992079265E+03  0.00000000000E+00 0.  1.
      -24    2    1    2    0    0  0.00000000000E+00  0.00000000000E+00 -0.18145111878E+03  0.19839046651E+03  0.80213893399E+02 0.  0.
       11    1    3    3    0    0 -0.37085651223E+02  0.96214319375E+01 -0.12005748660E+03  0.12602268672E+03  0.00000000000E+00 0. -1.
      -12    1    3    3    0    0  0.37085651223E+02 -0.96214319375E+01 -0.61393632186E+02  0.72367779793E+02  0.00000000000E+00 0.  1.
</event>
<event>
 5   0  0.8936300E+00  0.8034144E+02  0.7957747E-01  0.1326650E+00
       -2   -1    0    0    0  501  0.00000000000E+00  0.00000000000E+00  0.53680302809E+02  0.53680302809E+02  0.00000000000E+00 0.  1.
        1   -1    0    0  501    0  0.00000000000E+00  0.00000000000E+00 -0.30061059064E+02  0.30061059064E+02  0.00000000000E+00 0. -1.
      -24    2    1    2    0    0  0.00000000000E+00  0.00000000000E+00  0.23619243745E+02  0.83741361872E+02  0.80341440198E+02 0.  0.
       11    1    3    3    0    0  0.35819952075E+02  0.33873650455E+01 -0.68109681874E+01  0.36618745149E+02  0.00000000000E+00 0. -1.
      -12    1    3    3    0    0 -0.35819952075E+02 -0.33873650455E+01  0.30430211933E+02  0.47122616724E+02  0.00000000000E+00 0.  1.
</event>
<event>
 5   0  0.8936300E+00  0.7941289E+02  0.7957747E-01  0.1329151E+00
        1   -1    0    0  501    0  0.00000000000E+00  0.00000000000E+00  0.76339280399E+01  0.76339280399E+01  0.00000000000E+00 0. -1.
       -2   -1    0    0    0  501  0.00000000000E+00  0.00000000000E+00 -0.20652560998E+03  0.20652560998E+03  0.00000000000E+00 0.  1.
      -24    2    1    2    0    0  0.00000000000E+00  0.00000000000E+00 -0.19889168194E+03  0.21415953802E+03  0.79412886737E+02 0.  0.
       11    1    3    3    0    0  0.36225664482E+01  0.26629798952E+02 -0.20621582650E+02  0.33875047614E+02  0.00000000000E+00 0. -1.
      -12    1    3    3    0    0 -0.36225664482E+01 -0.26629798952E+02 -0.17827009929E+03  0.18028449041E+03  0.00000000000E+00 0.  1.
</event>
<event>
 5   0  0.8936300E+00  0.8016822E+02  0.7957747E-01  0.1327113E+00
        3   -1    0    0  501    0  0.00000000000E+00  0.00000000000E+00  0.86996771864E+02  0.86996771864E+02  0.00000000000E+00 0. -1.
       -4   -1    0    0    0  501  0.00000000000E+00  0.00000000000E+00 -0.18468914634E+02  0.18468914634E+02  0.00000000000E+00 0.  1.
      -24    2    1    2    0    0  0.00000000000E+00  0.00000000000E+00  0.68527857230E+02  0.10546568650E+03  0.80168221959E+02 0.  0.
       11    1    3    3    0    0  0.16468227924E+02 -0.12136318171E+02  0.79612290300E+02  0.82198598021E+02  0.00000000000E+00 0. -1.
      -12    1    3    3    0    0 -0.16468227924E+02  0.12136318171E+02 -0.11084433071E+02  0.23267088477E+02  0.00000000000E+00 0.  1.
</event>
<event>
 5   0  0.8936300E+00  0.7962217E+02  0.7957747E-01  0.1328584E+00
        1   -1    0    0  501    0  0.00000000000E+00  0.00000000000E+00  0.78333689739E+01  0.78333689739E+01  0.00000000000E+00 0. -1.
       -2   -1    0    0    0  501  0.00000000000E+00  0.00000000000E+00 -0.20232961549E+03  0.20232961549E+03  0.00000000000E+00 0.  1.
      -24    2    1    2    0    0  0.00000000000E+00  0.00000000000E+00 -0.19449624652E+03  0.21016298447E+03  0.79622171096E+02 0.  0.
       11    1    3    3    0    0 -0.22833822940E+02 -0.30600623487E+02 -0.67485934950E+02  0.77537945833E+02  0.00000000000E+00 0. -1.
      -12    1    3    3    0    0  0.22833822940E+02  0.30600623487E+02 -0.12701031157E+03  0.13262503863E+03  0.00000000000E+00 0.  1.
</event>
<event>
 5   0  0.8936300E+00  0.7779467E+02  0.7957747E-01  0.1333604E+00
        1   -1    0    0  501    0  0.00000000000E+00  0.00000000000E+00  0.31954205202E+02  0.31954205202E+02  0.00000000000E+00 0. -1.
       -2   -1    0    0    0  501  0.00000000000E+00  0.00000000000E+00 -0.47349091537E+02  0.47349091537E+02  0.00000000000E+00 0.  1.
      -24    2    1    2    0    0  0.00000000000E+00  0.00000000000E+00 -0.15394886334E+02  0.79303296739E+02  0.77794667866E+02 0.  0.
       11    1    3    3    0    0  0.15049731442E+02 -0.35435757012E+02 -0.20386400998E+01  0.38553123673E+02  0.00000000000E+00 0. -1.
      -12    1    3    3    0    0 -0.15049731442E+02  0.35435757012E+02 -0.13356246235E+02  0.40750173066E+02  0.00000000000E+00 0.  1.
</event>
<event>
 5   0  0.8936300E+00  0.7851130E+02  0.7957747E-01  0.1331617E+00
       -2   -1    0    0    0  501  0.00000000000E+00  0.00000000000E+00  0.26215118571E+02  0.26215118571E+02  0.00000000000E+00 0.  1.
        1   -1    0    0  501    0  0.00000000000E+00  0.00000000000E+00 -0.58783105428E+02  0.58783105428E+02  0.00000000000E+00 0. -1.
      -24    2    1    2    0    0  0.00000000000E+00  0.00000000000E+00 -0.32567986857E+02  0.84998223999E+02  0.78511300557E+02 0.  0.
       11    1    3    3    0    0  0.10892396183E+02 -0.99473443106E+00 -0.57100102489E+02  0.58138244688E+02  0.00000000000E+00 0. -1.
      -12    1    3    3    0    0 -0.10892396183E+02  0.99473443106E+00  0.24532115632E+02  0.26859979311E+02  0.00000000000E+00 0.  1.
</event>
<event>
 5   0  0.8936300E+00  0.8368152E+02  0.7957747E-01  0.1317959E+00
       -4   -1    0    0    0  501  0.00000000000E+00  0.00000000000E+00  0.36891374767E+02  0.36891374767E+02  0.00000000000E+00 0.  1.
        3   -1    0    0  501    0  0.00000000000E+00  0.00000000000E+00 -0.47454158492E+02  0.47454158492E+02  0.00000000000E+00 0. -1.
      -24    2    1    2    0    0  0.00000000000E+00  0.00000000000E+00 -0.10562783725E+02  0.84345533258E+02  0.83681518752E+02 0.  0.
       11    1    3    3    0    0 -0.24128456738E+02 -0.50813897622E+01 -0.39352669872E+02  0.46439590573E+02  0.00000000000E+00 0. -1.
      -12    1    3    3    0    0  0.24128456738E+02  0.50813897622E+01  0.28789886148E+02  0.37905942685E+02  0.00000000000E+00 0.  1.
</event>
<event>
 5   0  0.8936300E+00  0.7716009E+02  0.7957747E-01  0.1335383E+00
        1   -1    0    0  501    0  0.00000000000E+00  0.00000000000E+00  0.84172730416E+01  0.84172730416E+01  0.00000000000E+00 0. -1.
       -2   -1    0    0    0  501  0.00000000000E+00  0.00000000000E+00 -0.17682922838E+03  0.17682922838E+03  0.00000000000E+00 0.  1.
      -24    2    1    2    0    0  0.00000000000E+00  0.00000000000E+00 -0.16841195534E+03  0.18524650142E+03  0.77160090643E+02 0.  0.
       11    1    3    3    0    0 -0.15085307259E+02  0.33313889388E+02 -0.54700635791E+02  0.65799249822E+02  0.00000000000E+00 0. -1.
      -12    1    3    3    0    0  0.15085307259E+02 -0.33313889388E+02 -0.11371131955E+03  0.11944725160E+03  0.00000000000E+00 0.  1.
</event>
<event>
 5   0  0.8936300E+00  0.8152129E+02  0.7957747E-01  0.1323526E+00
        1   -1    0    0  501    0  0.00000000000E+00  0.00000000000E+00  0.16981686011E+03  0.16981686011E+03  0.00000000000E+00 0. -1.
       -2   -1    0    0    0  501  0.00000000000E+00  0.00000000000E+00 -0.97836580504E+01  0.97836580504E+01  0.00000000000E+00 0.  1.
      -24    2    1    2    0    0  0.00000000000E+00  0.00000000000E+00  0.16003320206E+03  0.17960051816E+03  0.81521287785E+02 0.  0.
       11    1    3    3    0    0 -0.26595525884E+02 -0.17907840877E+02  0.13546404413E+03  0.13920675276E+03  0.00000000000E+00 0. -1.
      -12    1    3    3    0    0  0.26595525884E+02  0.17907840877E+02  0.24569157933E+02  0.40393765404E+02  0.00000000000E+00 0.  1.
</event>
<event>
 5   0  0.8936300E+00  0.7933355E+02  0.7957747E-01  0.1329366E+00
        1   -1    0    0  501    0  0.00000000000E+00  0.00000000000E+00  0.65467828481E+01  0.65467828481E+01  0.00000000000E+00 0. -1.
       -2   -1    0    0    0  501  0.00000000000E+00  0.00000000000E+00 -0.24033990671E+03  0.24033990671E+03  0.00000000000E+00 0.  1.
      -24    2    1    2    0    0  0.00000000000E+00  0.00000000000E+00 -0.23379312386E+03  0.24688668956E+03  0.79333553531E+02 0.  0.
       11    1    3    3    0    0 -0.31275484458E+02  0.18029795906E+02 -0.65739865025E+02  0.74999728813E+02  0.00000000000E+00 0. -1.
      -12    1    3    3    0    0  0.31275484458E+02 -0.18029795906E+02 -0.16805325884E+03  0.17188696075E+03  0.00000000000E+00 0.  1.
</event>
<event>
 5   0  0.8936300E+00  0.7939536E+02  0.7957747E-01  0.1329198E+00
        1   -1    0    0  501    0  0.00000000000E+00  0.00000000000E+00  0.97527159010E+01  0.97527159010E+01  0.00000000000E+00 0. -1.
       -2   -1    0    0    0  501  0.00000000000E+00  0.00000000000E+00 -0.16158636233E+03  0.16158636233E+03  0.00000000000E+00 0.  1.
      -24    2    1    2    0    0  0.00000000000E+00  0.00000000000E+00 -0.15183364643E+03  0.17133907824E+03  0.79395362216E+02 0.  0.
       11    1    3    3    0    0  0.31705266628E+02 -0.18413528849E+02 -0.10876059191E+03  0.11477433654E+03  0.00000000000E+00 0. -1.
      -12    1    3    3    0    0 -0.31705266628E+02  0.18413528849E+02 -0.43073054527E+02  0.56564741694E+02  0.00000000000E+00 0.  1.
</event>
<event>
 5   0  0.8936300E+00  0.7520092E+02  0.7957747E-01  0.1341003E+00
        1   -1    0    0  501    0  0.00000000000E+00  0.00000000000E+00  0.21876232327E+02  0.21876232327E+02  0.00000000000E+00 0. -1.
       -2   -1    0    0    0  501  0.00000000000E+00  0.00000000000E+00 -0.64626966756E+02  0.64626966756E+02  0.00000000000E+00 0.  1.
      -24    2    1    2    0    0  0.00000000000E+00  0.00000000000E+00 -0.42750734428E+02  0.86503199083E+02  0.75200918594E+02 0.  0.
       11    1    3    3    0    0  0.10392696753E+02 -0.36808529569E+01  0.19975081761E+02  0.22815799694E+02  0.00000000000E+00 0. -1.
      -12    1    3    3    0    0 -0.10392696753E+02  0.36808529569E+01 -0.62725816190E+02  0.63687399389E+02  0.00000000000E+00 0.  1.
</event>
<event>
 5   0  0.8936300E+00  0.7906732E+02  0.7957747E-01  0.1330091E+00
        1   -1    0    0  501    0  0.00000000000E+00  0.00000000000E+00  0.10161460889E+02  0.10161460889E+02  0.00000000000E+00 0. -1.
       -2   -1    0    0    0  501  0.00000000000E+00  0.00000000000E+00 -0.15380765047E+03  0.15380765047E+03  0.00000000000E+00 0.  1.
      -24    2    1    2    0    0  0.00000000000E+00  0.00000000000E+00 -0.14364618958E+03  0.16396911136E+03  0.79067323836E+02 0.  0.
       11    1    3    3    0    0  0.11869966194E+02  0.21665591016E+02 -0.78165989499E+01  0.25911255289E+02  0.00000000000E+00 0. -1.
      -12    1    3    3    0    0 -0.11869966194E+02 -0.21665591016E+02 -0.13582959063E+03  0.13805785607E+03  0.00000000000E+00 0.  1.
</event>
<event>
 5   0  0.8936300E+00  0.7947622E+02  0.7957747E-01  0.1328979E+00
        1   -1    0    0  501    0  0.00000000000E+00  0.00000000000E+00  0.24969211521E+02  0.24969211521E+02  0.00000000000E+00 0. -1.
       -2   -1    0    0    0  501  0.00000000000E+00  0.00000000000E+00 -0.63242574248E+02  0.63242574248E+02  0.00000000000E+00 0.  1.
      -24    2    1    2    0    0  0.00000000000E+00  0.00000000000E+00 -0.38273362727E+02  0.88211785770E+02  0.79476215651E+02 0.  0.
       11    1    3    3    0    0 -0.34687664579E+01 -0.38589525707E+02 -0.93383711150E+01  0.39854598356E+02  0.00000000000E+00 0. -1.
      -12    1    3    3    0    0  0.34687664579E+01  0.38589525707E+02 -0.28934991612E+02  0.48357187414E+02  0.00000000000E+00 0.  1.
</event>
<event>
 5   0  0.8936300E+00  0.9182964E+02  0.7957747E-01  0.1298556E+00
       -2   -1    0    0    0  501  0.00000000000E+00  0.00000000000E+00  0.10803129098E+03  0.10803129098E+03  0.00000000000E+00 0.  1.
        1   -1    0    0  501    0  0.00000000000E+00  0.00000000000E+00 -0.19514443995E+02  0.19514443995E+02  0.00000000000E+00 0. -1.
      -24    2    1    2    0    0  0.00000000000E+00  0.00000000000E+00  0.88516846981E+02  0.12754573497E+03  0.91829637427E+02 0.  0.
       11    1    3    3    0    0 -0.16376266863E+02  0.30172603427E+02  0.19105405291E+01  0.34383401214E+02  0.00000000000E+00 0. -1.
      -12    1    3    3    0    0  0.16376266863E+02 -0.30172603427E+02  0.86606306452E+02  0.93162333758E+02  0.00000000000E+00 0.  1.
</event>
<event>
 5   0  0.8936300E+00  0.8032373E+02  0.7957747E-01  0.1326697E+00
        1   -1    0    0  501    0  0.00000000000E+00  0.00000000000E+00  0.85027683053E+01  0.85027683053E+01  0.00000000000E+00 0. -1.
       -2   -1    0    0    0  501  0.00000000000E+00  0.00000000000E+00 -0.18970004541E+03  0.18970004541E+03  0.00000000000E+00 0.  1.
      -24    2    1    2    0    0  0.00000000000E+00  0.00000000000E+00 -0.18119727711E+03  0.19820281372E+03  0.80323733321E+02 0.  0.
       11    1    3    3    0    0 -0.34670863549E+02 -0.46987632657E+00 -0.40592782829E+02  0.53385986746E+02  0.00000000000E+00 0. -1.
      -12    1    3    3    0    0  0.34670863549E+02  0.46987632657E+00 -0.14060449428E+03  0.14481682697E+03  0.00000000000E+00 0.  1.
</event>
<event>
 5   0  0.8936300E+00  0.8085828E+02  0.7957747E-01  0.1325274E+00
        1   -1    0    0  501    0  0.00000000000E+00  0.00000000000E+00  0.12799008466E+03  0.12799008466E+03  0.00000000000E+00 0. -1.
       -2   -1    0    0    0  501  0.00000000000E+00  0.00000000000E+00 -0.12770639386E+02  0.12770639386E+02  0.00000000000E+00 0.  1.
      -24    2    1    2    0    0  0.00000000000E+00  0.00000000000E+00  0.11521944527E+03  0.14076072405E+03  0.80858276415E+02 0.  0.
       11    1    3    3    0    0 -0.32600909951E+02 -0.22982888921E+02  0.69089019334E+02  0.79776720322E+02  0.00000000000E+00 0. -1.
      -12    1    3    3    0    0  0.32600909951E+02  0.22982888921E+02  0.46130425940E+02  0.60984003724E+02  0.00000000000E+00 0.  1.
</event>
<event>
 5   0  0.8936300E+00  0.8152461E+02  0.7957747E-01  0.1323517E+00
        1   -1    0    0  501    0  0.00000000000E+00  0.00000000000E+00  0.17186532177E+03  0.17186532177E+03  0.00000000000E+00 0. -1.
       -2   -1    0    0    0  501  0.00000000000E+00  0.00000000000E+00 -0.96678344198E+01  0.96678344198E+01  0.00000000000E+00 0.  1.
      -24    2    1    2    0    0  0.00000000000E+00  0.00000000000E+00  0.16219748735E+03  0.18153315619E+03  0.81524609127E+02 0.  0.
       11    1    3    3    0    0 -0.15284508568E+01  0.35976646598E+02  0.12363509567E+03  0.12877224912E+03  0.00000000000E+00 0. -1.
      -12    1    3    3    0    0  0.15284508568E+01 -0.35976646598E+02  0.38562391677E+02  0.52760907065E+02  0.00000000000E+00 0.  1.
</event>
<event>
 5   0  0.8936300E+00  0.8081856E+02  0.7957747E-01  0.1325379E+00
        1   -1    0    0  501    0  0.00000000000E+00  0.00000000000E+00  0.28715144118E+02  0.28715144118E+02  0.00000000000E+00 0. -1.
       -2   -1    0    0    0  501  0.00000000000E+00  0.00000000000E+00 -0.56865802377E+02  0.56865802377E+02  0.00000000000E+00 0.  1.
      -24    2    1    2    0    0  0.00000000000E+00  0.00000000000E+00 -0.28150658259E+02  0.85580946494E+02  0.80818555063E+02 0.  0.
       11    1    3    3    0    0  0.78806923364E+01 -0.11778524612E+02  0.25997337368E+02  0.29609128727E+02  0.00000000000E+00 0. -1.
      -12    1    3    3    0    0 -0.78806923364E+01  0.11778524612E+02 -0.54147995627E+02  0.55971817767E+02  0.00000000000E+00 0.  1.
</event>
<event>
 5   0  0.8936300E+00  0.8363546E+02  0.7957747E-01  0.1318076E+00
        1   -1    0    0  501    0  0.00000000000E+00  0.00000000000E+00  0.50063322489E+02  0.50063322489E+02  0.00000000000E+00 0. -1.
       -2   -1    0    0    0  501  0.00000000000E+00  0.00000000000E+00 -0.34930214976E+02  0.34930214976E+02  0.00000000000E+00 0.  1.
      -24    2    1    2    0    0  0.00000000000E+00  0.00000000000E+00  0.15133107513E+02  0.84993537464E+02  0.83635461783E+02 0.  0.
       11    1    3    3    0    0  0.11122572390E+02 -0.87093044990E+01  0.47565029846E+02  0.49618501244E+02  0.00000000000E+00 0. -1.
      -12    1    3    3    0    0 -0.11122572390E+02  0.87093044990E+01 -0.32431922333E+02  0.35375036221E+02  0.00000000000E+00 0.  1.
</event>
<event>
 5   0  0.8936300E+00  0.8057905E+02  0.7957747E-01  0.1326016E+00
        1   -1    0    0  501    0  0.00000000000E+00  0.00000000000E+00  0.68426850805E+02  0.68426850805E+02  0.00000000000E+00 0. -1.
       -2   -1    0    0    0  501  0.00000000000E+00  0.00000000000E+00 -0.23722350663E+02  0.23722350663E+02  0.00000000000E+00 0.  1.
      -24    2    1    2    0    0  0.00000000000E+00  0.00000000000E+00  0.44704500142E+02  0.92149201469E+02  0.80579048135E+02 0.  0.
       11    1    3    3    0    0  0.20504421376E+02  0.60055403792E+01  0.61414563858E+02  0.65024968013E+02  0.00000000000E+00 0. -1.
      -12    1    3    3    0    0 -0.20504421376E+02 -0.60055403792E+01 -0.16710063716E+02  0.27124233456E+02  0.00000000000E+00 0.  1.
</event>
<event>
 5   0  0.8936300E+00  0.7629983E+02  0.7957747E-01  0.1337827E+00
        1   -1    0    0  501    0  0.00000000000E+00  0.00000000000E+00  0.54884926299E+01  0.54884926299E+01  0.00000000000E+00 0. -1.
       -2   -1    0    0    0  501  0.00000000000E+00  0.00000000000E+00 -0.26517592859E+03  0.26517592859E+03  0.00000000000E+00 0.  1.
      -24    2    1    2    0    0  0.00000000000E+00  0.00000000000E+00 -0.25968743596E+03  0.27066442122E+03  0.76299833020E+02 0.  0.
       11    1    3    3    0    0 -0.96298625422E+01 -0.17008923815E+02 -0.13622878683E+02  0.23824788888E+02  0.00000000000E+00 0. -1.
      -12    1    3    3    0    0  0.96298625422E+01  0.17008923815E+02 -0.24606455728E+03  0.24683963233E+03  0.00000000000E+00 0.  1.
</event>
<event>
 5   0  0.8936300E+00  0.7893228E+02  0.7957747E-01  0.1330461E+00
        1   -1    0    0  501    0  0.00000000000E+00  0.00000000000E+00  0.14622365263E+02  0.14622365263E+02  0.00000000000E+00 0. -1.
       -2   -1    0    0    0  501  0.00000000000E+00  0.00000000000E+00 -0.10652012697E+03  0.10652012697E+03  0.00000000000E+00 0.  1.
      -24    2    1    2    0    0  0.00000000000E+00  0.00000000000E+00 -0.91897761704E+02  0.12114249223E+03  0.78932279947E+02 0.  0.
       11    1    3    3    0    0  0.28985940939E+02  0.26628013636E+02 -0.41516538804E+02  0.57208905571E+02  0.00000000000E+00 0. -1.
      -12    1    3    3    0    0 -0.28985940939E+02 -0.26628013636E+02 -0.50381222899E+02  0.63933586659E+02  0.00000000000E+00 0.  1.
</event>
<event>
 5   0  0.8936300E+00  0.7973823E+02  0.7957747E-01  0.1328270E+00
        1   -1    0    0  501    0  0.00000000000E+00  0.00000000000E+00  0.44935190607E+02  0.44935190607E+02  0.00000000000E+00 0. -1.
       -2   -1    0    0    0  501  0.00000000000E+00  0.00000000000E+00 -0.35374201681E+02  0.35374201681E+02  0.00000000000E+00 0.  1.
      -24    2    1    2    0    0  0.00000000000E+00  0.00000000000E+00  0.95609889253E+01  0.80309392288E+02  0.79738234119E+02 0.  0.
       11    1    3    3    0    0  0.31632577685E+02 -0.20823262648E+02  0.17332438083E+02  0.41649029379E+02  0.00000000000E+00 0. -1.
      -12    1    3    3    0    0 -0.31632577685E+02  0.20823262648E+02 -0.77714491577E+01  0.38660362909E+02  0.00000000000E+00 0.  1.
</event>
<event>
 5   0  0.8936300E+00  0.7853756E+02  0.7957747E-01  0.1331544E+00
        1   -1    0    0  501    0  0.00000000000E+00  0.00000000000E+00  0.69419828084E+02  0.69419828084E+02  0.00000000000E+00 0. -1.
       -2   -1    0    0    0  501  0.00000000000E+00  0.00000000000E+00 -0.22213206766E+02  0.22213206766E+02  0.00000000000E+00 0.  1.
      -24    2    1    2    0    0  0.00000000000E+00  0.00000000000E+00  0.47206621318E+02  0.91633034850E+02  0.78537557764E+02 0.  0.
       11    1    3    3    0    0 -0.31799504926E+02 -0.21592184016E+02  0.32981334720E+02  0.50647797228E+02  0.00000000000E+00 0. -1.
      -12    1    3    3    0    0  0.31799504926E+02  0.21592184016E+02  0.14225286598E+02  0.40985237622E+02  0.00000000000E+00 0.  1.
</event>
<event>
 5   0  0.8936300E+00  0.8211998E+02  0.7957747E-01  0.1321964E+00
        1   -1    0    0  501    0  0.00000000000E+00  0.00000000000E+00  0.85500094407E+01  0.85500094407E+01  0.00000000000E+00 0. -1.
       -2   -1    0    0    0  501  0.00000000000E+00  0.00000000000E+00 -0.19718373290E+03  0.19718373290E+03  0.00000000000E+00 0.  1.
      -24    2    1    2    0    0  0.00000000000E+00  0.00000000000E+00 -0.18863372345E+03  0.20573374234E+03  0.82119979976E+02 0.  0.
       11    1    3    3    0    0 -0.63146640147E+01 -0.32326225463E+02 -0.32895892101E+02  0.46551042431E+02  0.00000000000E+00 0. -1.
      -12    1    3    3    0    0  0.63146640147E+01  0.32326225463E+02 -0.15573783135E+03  0.15918269991E+03  0.00000000000E+00 0.  1.
</event>
<event>
 5   0  0.8936300E+00  0.8011369E+02  0.7957747E-01  0.1327259E+00
        1   -1    0    0  501    0  0.00000000000E+00  0.00000000000E+00  0.58519001654E+01  0.58519001654E+01  0.00000000000E+00 0. -1.
       -2   -1    0    0    0  501  0.00000000000E+00  0.00000000000E+00 -0.27419310416E+03  0.27419310416E+03  0.00000000000E+00 0.  1.
      -24    2    1    2    0    0  0.00000000000E+00  0.00000000000E+00 -0.26834120400E+03  0.28004500433E+03  0.80113686012E+02 0.  0.
       11    1    3    3    0    0 -0.32039106444E+02 -0.15538153384E+01 -0.50303125515E+02  0.59660063027E+02  0.00000000000E+00 0. -1.
      -12    1    3    3    0    0  0.32039106444E+02  0.15538153384E+01 -0.21803807848E+03  0.22038494130E+03  0.00000000000E+00 0.  1.
</event>
<event>
 5   0  0.8936300E+00  0.7781351E+02  0.7957747E-01  0.1333551E+00
        1   -1    0    0  501    0  0.00000000000E+00  0.00000000000E+00  0.78868826192E+02  0.78868826192E+02  0.00000000000E+00 0. -1.
       -2   -1    0    0    0  501  0.00000000000E+00  0.00000000000E+00 -0.19193078610E+02  0.19193078610E+02  0.00000000000E+00 0.  1.
      -24    2    1    2    0    0  0.00000000000E+00  0.00000000000E+00  0.59675747581E+02  0.98061904802E+02  0.77813509907E+02 0.  0.
       11    1    3    3    0    0 -0.13872575109E+02 -0.10018056434E+02  0.73872057780E+02  0.75828033836E+02  0.00000000000E+00 0. -1.
      -12    1    3    3    0    0  0.13872575109E+02  0.10018056434E+02 -0.14196310198E+02  0.22233870966E+02  0.00000000000E+00 0.  1.
</event>
<event>
 5   0  0.8936300E+00  0.8023051E+02  0.7957747E-01  0.1326946E+00
        1   -1    0    0  501    0  0.00000000000E+00  0.00000000000E+00  0.79625113432E+02  0.79625113432E+02  0.00000000000E+00 0. -1.
       -2   -1    0    0    0  501  0.00000000000E+00  0.00000000000E+00 -0.20210126469E+02  0.20210126469E+02  0.00000000000E+00 0.  1.
      -24    2    1    2    0    0  0.00000000000E+00  0.00000000000E+00  0.59414986963E+02  0.99835239901E+02  0.80230508227E+02 0.  0.
       11    1    3    3    0    0  0.45684208928E+01 -0.36743564090E+02  0.10499485686E+02  0.38486350452E+02  0.00000000000E+00 0. -1.
      -12    1    3    3    0    0 -0.45684208928E+01  0.36743564090E+02  0.48915501277E+02  0.61348889449E+02  0.00000000000E+00 0.  1.
</event>
<event>
 5   0  0.8936300E+00  0.7863330E+02  0.7957747E-01  0.1331281E+00
        1   -1    0    0  501    0  0.00000000000E+00  0.00000000000E+00  0.23174682322E+03  0.23174682322E+03  0.00000000000E+00 0. -1.
       -2   -1    0    0    0  501  0.00000000000E+00  0.00000000000E+00 -0.66702057036E+01  0.66702057036E+01  0.00000000000E+00 0.  1.
      -24    2    1    2    0    0  0.00000000000E+00  0.00000000000E+00  0.22507661751E+03  0.23841702892E+03  0.78633300376E+02 0.  0.
       11    1    3    3    0    0  0.71970732857E+01 -0.38644980772E+02  0.11482054774E+03  0.12136305281E+03  0.00000000000E+00 0. -1.
      -12    1    3    3    0    0 -0.71970732857E+01  0.38644980772E+02  0.11025606977E+03  0.11705397611E+03  0.00000000000E+00 0.  1.
</event>
<event>
 5   0  0.8936300E+00  0.8147824E+02  0.7957747E-01  0.1323639E+00
       -2   -1    0    0    0  501  0.00000000000E+00  0.00000000000E+00  0.16079723129E+03  0.16079723129E+03  0.00000000000E+00 0.  1.
        1   -1    0    0  501    0  0.00000000000E+00  0.00000000000E+00 -0.10321546100E+02  0.10321546100E+02  0.00000000000E+00 0. -1.
      -24    2    1    2    0    0  0.00000000000E+00  0.00000000000E+00  0.15047568519E+03  0.17111877739E+03  0.81478243367E+02 0.  0.
       11    1    3    3    0    0 -0.32772344703E+02 -0.22716494272E+02  0.57715470115E+02  0.70150845897E+02  0.00000000000E+00 0. -1.
      -12    1    3    3    0    0  0.32772344703E+02  0.22716494272E+02  0.92760215078E+02  0.10096793150E+03  0.00000000000E+00 0.  1.
</event>
<event>
 5   0  0.8936300E+00  0.8163157E+02  0.7957747E-01  0.1323237E+00
        1   -1    0    0  501    0  0.00000000000E+00  0.00000000000E+00  0.36310806906E+02  0.36310806906E+02  0.00000000000E+00 0. -1.
       -2   -1    0    0    0  501  0.00000000000E+00  0.00000000000E+00 -0.45879684517E+02  0.45879684517E+02  0.00000000000E+00 0.  1.
      -24    2    1    2    0    0  0.00000000000E+00  0.00000000000E+00 -0.95688776113E+01  0.82190491423E+02  0.81631571476E+02 0.  0.
       11    1    3    3    0    0 -0.29154415420E+02 -0.80852161774E+01  0.22799815653E+02  0.37883799347E+02  0.00000000000E+00 0. -1.
      -12    1    3    3    0    0  0.29154415420E+02  0.80852161774E+01 -0.32368693264E+02  0.44306692077E+02  0.00000000000E+00 0.  1.
</event>
<event>
 5   0  0.8936300E+00  0.8357654E+02  0.7957747E-01  0.1318226E+00
        1   -1    0    0  501    0  0.00000000000E+00  0.00000000000E+00  0.11695049538E+03  0.11695049538E+03  0.00000000000E+00 0. -1.
       -2   -1    0    0    0  501  0.00000000000E+00  0.00000000000E+00 -0.14931612537E+02  0.14931612537E+02  0.00000000000E+00 0.  1.
      -24    2    1    2    0    0  0.00000000000E+00  0.00000000000E+00  0.10201888284E+03  0.13188210792E+03  0.83576539364E+02 0.  0.
       11    1    3    3    0    0 -0.27851585835E+02 -0.29817588037E+02  0.65251538666E+02  0.76958187921E+02  0.00000000000E+00 0. -1.
      -12    1    3    3    0    0  0.27851585835E+02  0.29817588037E+02  0.36767344177E+02  0.54923919995E+02  0.00000000000E+00 0.  1.
</event>
<event>
 5   0  0.8936300E+00  0.8353635E+02  0.7957747E-01  0.1318328E+00
        1   -1    0    0  501    0  0.00000000000E+00  0.00000000000E+00  0.23261532348E+02  0.23261532348E+02  0.00000000000E+00 0. -1.
       -2   -1    0    0    0  501  0.00000000000E+00  0.00000000000E+00 -0.74998518672E+02  0.74998518672E+02  0.00000000000E+00 0.  1.
      -24    2    1    2    0    0  0.00000000000E+00  0.00000000000E+00 -0.51736986324E+02  0.98260051020E+02  0.83536350606E+02 0.  0.
       11    1    3    3    0    0 -0.23290020770E+02 -0.58205395137E+01  0.14335977463E+02  0.27961115813E+02  0.00000000000E+00 0. -1.
      -12    1    3    3    0    0  0.23290020770E+02  0.58205395137E+01 -0.66072963786E+02  0.70298935207E+02  0.00000000000E+00 0.  1.
</event>
<event>
 5   0  0.8936300E+00  0.8107107E+02  0.7957747E-01  0.1324711E+00
        1   -1    0    0  501    0  0.00000000000E+00  0.00000000000E+00  0.17271169067E+02  0.17271169067E+02  0.00000000000E+00 0. -1.
       -2   -1    0    0    0  501  0.00000000000E+00  0.00000000000E+00 -0.95137148346E+02  0.95137148346E+02  0.00000000000E+00 0.  1.
      -24    2    1    2    0    0  0.00000000000E+00  0.00000000000E+00 -0.77865979279E+02  0.11240831741E+03  0.81071074340E+02 0.  0.
       11    1    3    3    0    0  0.12468110919E+02  0.37756051454E+01  0.14289589391E+02  0.19336528879E+02  0.00000000000E+00 0. -1.
      -12    1    3    3    0    0 -0.12468110919E+02 -0.37756051454E+01 -0.92155568670E+02  0.93071788534E+02  0.00000000000E+00 0.  1.
</event>
<event>
 5   0  0.8936300E+00  0.8165543E+02  0.7957747E-01  0.1323175E+00
       -4   -1    0    0    0  501  0.00000000000E+00  0.00000000000E+00  0.17561067719E+02  0.17561067719E+02  0.00000000000E+00 0.  1.
        3   -1    0    0  501    0  0.00000000000E+00  0.00000000000E+00 -0.94920316674E+02  0.94920316674E+02  0.00000000000E+00 0. -1.
      -24    2    1    2    0    0  0.00000000000E+00  0.00000000000E+00 -0.77359248955E+02  0.11248138439E+03  0.81655425026E+02 0.  0.
       11    1    3    3    0    0  0.33336183184E+02 -0.11100422505E+02 -0.67323331395E+02  0.75940446662E+02  0.00000000000E+00 0. -1.
      -12    1    3    3    0    0 -0.33336183184E+02  0.11100422505E+02 -0.10035917560E+02  0.36540937732E+02  0.00000000000E+00 0.  1.
</event>
<event>
 5   0  0.8936300E+00  0.8310356E+02  0.7957747E-01  0.1319430E+00
        1   -1    0    0  501    0  0.00000000000E+00  0.00000000000E+00  0.11162724398E+03  0.11162724398E+03  0.00000000000E+00 0. -1.
       -2   -1    0    0    0  501  0.00000000000E+00  0.00000000000E+00 -0.15467105213E+02  0.15467105213E+02  0.00000000000E+00 0.  1.
      -24    2    1    2    0    0  0.00000000000E+00  0.00000000000E+00  0.96160138764E+02  0.12709434919E+03  0.83103557739E+02 0.  0.
       11    1    3    3    0    0 -0.16399957319E+02  0.37834963041E+02  0.40265814101E+02  0.57634874977E+02  0.00000000000E+00 0. -1.
      -12    1    3    3    0    0  0.16399957319E+02 -0.37834963041E+02  0.55894324663E+02  0.69459474213E+02  0.00000000000E+00 0.  1.
</event>
<event>
 5   0  0.8936300E+00  0.8291009E+02  0.7957747E-01  0.1319925E+00
        1   -1    0    0  501    0  0.00000000000E+00  0.00000000000E+00  0.11401453821E+03  0.11401453821E+03  0.00000000000E+00 0. -1.
       -2   -1    0    0    0  501  0.00000000000E+00  0.00000000000E+00 -0.15072820250E+02  0.15072820250E+02  0.00000000000E+00 0.  1.
      -24    2    1    2    0    0  0.00000000000E+00  0.00000000000E+00  0.98941717960E+02  0.12908735846E+03  0.82910087210E+02 0.  0.
       11    1    3    3    0    0  0.40659408023E+02  0.89019064460E+00  0.36962702302E+02  0.54956539753E+02  0.00000000000E+00 0. -1.
      -12    1    3    3    0    0 -0.40659408023E+02 -0.89019064460E+00  0.61979015658E+02  0.74130818706E+02  0.00000000000E+00 0.  1.
</event>
<event>
 5   0  0.8936300E+00  0.1060064E+03  0.7957747E-01  0.1269674E+00
        1   -1    0    0  501    0  0.00000000000E+00  0.00000000000E+00  0.22235334573E+02  0.22235334573E+02  0.00000000000E+00 0. -1.
       -2   -1    0    0    0  501  0.00000000000E+00  0.00000000000E+00 -0.12634576799E+03  0.12634576799E+03  0.00000000000E+00 0.  1.
      -24    2    1    2    0    0  0.00000000000E+00  0.00000000000E+00 -0.10411043341E+03  0.14858110256E+03  0.10600642288E+03 0.  0.
       11    1    3    3    0    0 -0.18541440858E+02 -0.31495662468E+02  0.17492158795E+01  0.36589910352E+02  0.00000000000E+00 0. -1.
      -12    1    3    3    0    0  0.18541440858E+02  0.31495662468E+02 -0.10585964929E+03  0.11199119221E+03  0.00000000000E+00 0.  1.
</event>
<event>
 5   0  0.8936300E+00  0.7981855E+02  0.7957747E-01  0.1328053E+00
       -4   -1    0    0    0  501  0.00000000000E+00  0.00000000000E+00  0.59611596401E+01  0.59611596401E+01  0.00000000000E+00 0.  1.
        3   -1    0    0  501    0  0.00000000000E+00  0.00000000000E+00 -0.26718798216E+03  0.26718798216E+03  0.00000000000E+00 0. -1.
      -24    2    1    2    0    0  0.00000000000E+00  0.00000000000E+00 -0.26122682252E+03  0.27314914180E+03  0.79818549613E+02 0.  0.
       11    1    3    3    0    0  0.34260664647E+02  0.14450788397E+02 -0.18022028823E+03  0.18401622406E+03  0.00000000000E+00 0. -1.
      -12    1    3    3    0    0 -0.34260664647E+02 -0.14450788397E+02 -0.81006534291E+02  0.89132917742E+02  0.00000000000E+00 0.  1.
</event>
<event>
 5   0  0.8936300E+00  0.7860513E+02  0.7957747E-01  0.1331358E+00
        1   -1    0    0  501    0  0.00000000000E+00  0.00000000000E+00  0.38554052706E+01  0.38554052706E+01  0.00000000000E+00 0. -1.
       -2   -1    0    0    0  501  0.00000000000E+00  0.00000000000E+00 -0.40065605554E+03  0.40065605554E+03  0.00000000000E+00 0.  1.
      -24    2    1    2    0    0  0.00000000000E+00  0.00000000000E+00 -0.39680065027E+03  0.40451146081E+03  0.78605126251E+02 0.  0.
       11    1    3    3    0    0  0.12317550010E+02  0.35326806137E+02 -0.13643577628E+03  0.14147235178E+03  0.00000000000E+00 0. -1.
      -12    1    3    3    0    0 -0.12317550010E+02 -0.35326806137E+02 -0.26036487399E+03  0.26303910903E+03  0.00000000000E+00 0.  1.
</event>
<event>
 5   0  0.8936300E+00  0.8051876E+02  0.7957747E-01  0.1326176E+00
        1   -1    0    0  501    0  0.00000000000E+00  0.00000000000E+00  0.84691751631E+01  0.84691751631E+01  0.00000000000E+00 0. -1.
       -2   -1    0    0    0  501  0.00000000000E+00  0.00000000000E+00 -0.19137845054E+03  0.19137845054E+03  0.00000000000E+00 0.  1.
      -24    2    1    2    0    0  0.00000000000E+00  0.00000000000E+00 -0.18290927538E+03  0.19984762570E+03  0.80518758562E+02 0.  0.
       11    1    3    3    0    0 -0.12906077945E+02  0.31750629208E+02 -0.39029261901E+02  0.51941819255E+02  0.00000000000E+00 0. -1.
      -12    1    3    3    0    0  0.12906077945E+02 -0.31750629208E+02 -0.14388001348E+03  0.14790580645E+03  0.00000000000E+00 0.  1.
</event>
<event>
 5   0  0.8936300E+00  0.7923807E+02  0.7957747E-01  0.1329626E+00
       -2   -1    0    0    0  501  0.00000000000E+00  0.00000000000E+00  0.31284827345E+02  0.31284827345E+02  0.00000000000E+00 0.  1.
        1   -1    0    0  501    0  0.00000000000E+00  0.00000000000E+00 -0.50173451625E+02  0.50173451625E+02  0.00000000000E+00 0. -1.
      -24    2    1    2    0    0  0.00000000000E+00  0.00000000000E+00 -0.18888624280E+02  0.81458278970E+02  0.79238065887E+02 0.  0.
       11    1    3    3    0    0 -0.18454582043E+02 -0.28215022689E+02 -0.30836226869E+02  0.45689517301E+02  0.00000000000E+00 0. -1.
      -12    1    3    3    0    0  0.18454582043E+02  0.28215022689E+02  0.11947602589E+02  0.35768761669E+02  0.00000000000E+00 0.  1.
</event>
<event>
 5   0  0.8936300E+00  0.7952803E+02  0.7957747E-01  0.1328838E+00
        1   -1    0    0  501    0  0.00000000000E+00  0.00000000000E+00  0.20995295875E+02  0.20995295875E+02  0.00000000000E+00 0. -1.
       -2   -1    0    0    0  501  0.00000000000E+00  0.00000000000E+00 -0.75310999836E+02  0.75310999836E+02  0.00000000000E+00 0.  1.
      -24    2    1    2    0    0  0.00000000000E+00  0.00000000000E+00 -0.54315703961E+02  0.96306295711E+02  0.79528025857E+02 0.  0.
       11    1    3    3    0    0  0.18617322368E+02  0.18628160148E+02 -0.63235169451E+02  0.68500362759E+02  0.00000000000E+00 0. -1.
      -12    1    3    3    0    0 -0.18617322368E+02 -0.18628160148E+02  0.89194654901E+01  0.27805932952E+02  0.00000000000E+00 0.  1.
</event>
<event>
 5   0  0.8936300E+00  0.7962539E+02  0.7957747E-01  0.1328575E+00
        1   -1    0    0  501    0  0.00000000000E+00  0.00000000000E+00  0.47509583864E+01  0.47509583864E+01  0.00000000000E+00 0. -1.
       -2   -1    0    0    0  501  0.00000000000E+00  0.00000000000E+00 -0.33362757912E+03  0.33362757912E+03  0.00000000000E+00 0.  1.
      -24    2    1    2    0    0  0.00000000000E+00  0.00000000000E+00 -0.32887662073E+03  0.33837853751E+03  0.79625391552E+02 0.  0.
       11    1    3    3    0    0  0.20237158481E+02 -0.12553013727E+01 -0.18834490417E+02  0.27674110540E+02  0.00000000000E+00 0. -1.
      -12    1    3    3    0    0 -0.20237158481E+02  0.12553013727E+01 -0.31004213032E+03  0.31070442697E+03  0.00000000000E+00 0.  1.
</event>
<event>
 5   0  0.8936300E+00  0.8100459E+02  0.7957747E-01  0.1324887E+00
        1   -1    0    0  501    0  0.00000000000E+00  0.00000000000E+00  0.43658032487E+02  0.43658032487E+02  0.00000000000E+00 0. -1.
       -2   -1    0    0    0  501  0.00000000000E+00  0.00000000000E+00 -0.37574662416E+02  0.37574662416E+02  0.00000000000E+00 0.  1.
      -24    2    1    2    0    0  0.00000000000E+00  0.00000000000E+00  0.60833700711E+01  0.81232694903E+02  0.81004588325E+02 0.  0.
       11    1    3    3    0    0 -0.21623024716E+02 -0.28289677045E+02  0.22398236417E+02  0.42065924687E+02  0.00000000000E+00 0. -1.
      -12    1    3    3    0    0  0.21623024716E+02  0.28289677045E+02 -0.16314866346E+02  0.39166770215E+02  0.00000000000E+00 0.  1.
</event>
<event>
 5   0  0.8936300E+00  0.8057665E+02  0.7957747E-01  0.1326022E+00
        1   -1    0    0  501    0  0.00000000000E+00  0.00000000000E+00  0.20508456015E+02  0.20508456015E+02  0.00000000000E+00 0. -1.
       -2   -1    0    0    0  501  0.00000000000E+00  0.00000000000E+00 -0.79145367730E+02  0.79145367730E+02  0.00000000000E+00 0.  1.
      -24    2    1    2    0    0  0.00000000000E+00  0.00000000000E+00 -0.58636911715E+02  0.99653823744E+02  0.80576654009E+02 0.  0.
       11    1    3    3    0    0  0.14071059346E+02  0.35241981455E+02 -0.12580713285E+02  0.39978323061E+02  0.00000000000E+00 0. -1.
      -12    1    3    3    0    0 -0.14071059346E+02 -0.35241981455E+02 -0.46056198430E+02  0.59675500684E+02  0.00000000000E+00 0.  1.
</event>
<event>
 5   0  0.8936300E+00  0.8567807E+02  0.7957747E-01  0.1312981E+00
        1   -1    0    0  501    0  0.00000000000E+00  0.00000000000E+00  0.34471603275E+02  0.34471603275E+02  0.00000000000E+00 0. -1.
       -2   -1    0    0    0  501  0.00000000000E+00  0.00000000000E+00 -0.53237530918E+02  0.53237530918E+02  0.00000000000E+00 0.  1.
      -24    2    1    2    0    0  0.00000000000E+00  0.00000000000E+00 -0.18765927643E+02  0.87709134193E+02  0.85678072927E+02 0.  0.
       11    1    3    3    0    0  0.10509776268E+02  0.24841456500E+02  0.24687059262E+02  0.36565068758E+02  0.00000000000E+00 0. -1.
      -12    1    3    3    0    0 -0.10509776268E+02 -0.24841456500E+02 -0.43452986905E+02  0.51144065435E+02  0.00000000000E+00 0.  1.
</event>
<event>
 5   0  0.8936300E+00  0.7918284E+02  0.7957747E-01  0.1329776E+00
        1   -1    0    0  501    0  0.00000000000E+00  0.00000000000E+00  0.46864137173E+01  0.46864137173E+01  0.00000000000E+00 0. -1.
       -2   -1    0    0    0  501  0.00000000000E+00  0.00000000000E+00 -0.33447332045E+03  0.33447332045E+03  0.00000000000E+00 0.  1.
      -24    2    1    2    0    0  0.00000000000E+00  0.00000000000E+00 -0.32978690674E+03  0.33915973417E+03  0.79182835439E+02 0.  0.
       11    1    3    3    0    0  0.18350695011E+02  0.14460193035E+02 -0.27987871966E+02  0.36457731241E+02  0.00000000000E+00 0. -1.
      -12    1    3    3    0    0 -0.18350695011E+02 -0.14460193035E+02 -0.30179903477E+03  0.30270200293E+03  0.00000000000E+00 0.  1.
</event>
<event>
 5   0  0.8936300E+00  0.7961918E+02  0.7957747E-01  0.1328592E+00
        1   -1    0    0  501    0  0.00000000000E+00  0.00000000000E+00  0.10562805736E+03  0.10562805736E+03  0.00000000000E+00 0. -1.
       -2   -1    0    0    0  501  0.00000000000E+00  0.00000000000E+00 -0.15003620295E+02  0.15003620295E+02  0.00000000000E+00 0.  1.
      -24    2    1    2    0    0  0.00000000000E+00  0.00000000000E+00  0.90624437064E+02  0.12063167765E+03  0.79619175206E+02 0.  0.
       11    1    3    3    0    0  0.23768409965E+02 -0.30261897407E+02  0.29854881543E+02  0.48703528608E+02  0.00000000000E+00 0. -1.
      -12    1    3    3    0    0 -0.23768409965E+02  0.30261897407E+02  0.60769555522E+02  0.71928149046E+02  0.00000000000E+00 0.  1.
</event>
<event>
 5   0  0.8936300E+00  0.7586594E+02  0.7957747E-01  0.1339074E+00
        1   -1    0    0  501    0  0.00000000000E+00  0.00000000000E+00  0.18311428608E+02  0.18311428608E+02  0.00000000000E+00 0. -1.
       -2   -1    0    0    0  501  0.00000000000E+00  0.00000000000E+00 -0.78579890126E+02  0.78579890126E+02  0.00000000000E+00 0.  1.
      -24    2    1    2    0    0  0.00000000000E+00  0.00000000000E+00 -0.60268461518E+02  0.96891318734E+02  0.75865935651E+02 0.  0.
       11    1    3    3    0    0 -0.26373631292E+02  0.26263332189E+02 -0.20785872189E+02  0.42630781459E+02  0.00000000000E+00 0. -1.
      -12    1    3    3    0    0  0.26373631292E+02 -0.26263332189E+02 -0.39482589329E+02  0.54260537275E+02  0.00000000000E+00 0.  1.
</event>
<event>
 5   0  0.8936300E+00  0.8180413E+02  0.7957747E-01  0.1322786E+00
        1   -1    0    0  501    0  0.00000000000E+00  0.00000000000E+00  0.28836991471E+01  0.28836991471E+01  0.00000000000E+00 0. -1.
       -2   -1    0    0    0  501  0.00000000000E+00  0.00000000000E+00 -0.58015030576E+03  0.58015030576E+03  0.00000000000E+00 0.  1.
      -24    2    1    2    0    0  0.00000000000E+00  0.00000000000E+00 -0.57726660661E+03  0.58303400491E+03  0.81804130505E+02 0.  0.
       11    1    3    3    0    0  0.40430022662E+01  0.39486045983E+02 -0.21826321417E+03  0.22184301736E+03  0.00000000000E+00 0. -1.
      -12    1    3    3    0    0 -0.40430022662E+01 -0.39486045983E+02 -0.35900339245E+03  0.36119098755E+03  0.00000000000E+00 0.  1.
</event>
<event>
 5   0  0.8936300E+00  0.8019535E+02  0.7957747E-01  0.1327041E+00
        1   -1    0    0  501    0  0.00000000000E+00  0.00000000000E+00  0.16511669839E+02  0.16511669839E+02  0.00000000000E+00 0. -1.
       -2   -1    0    0    0  501  0.00000000000E+00  0.00000000000E+00 -0.97374976972E+02  0.97374976972E+02  0.00000000000E+00 0.  1.
      -24    2    1    2    0    0  0.00000000000E+00  0.00000000000E+00 -0.80863307133E+02  0.11388664681E+03  0.80195348252E+02 0.  0.
       11    1    3    3    0    0 -0.26071764380E+02 -0.55243172804E+01  0.21142182795E+01  0.26734339308E+02  0.00000000000E+00 0. -1.
      -12    1    3    3    0    0  0.26071764380E+02  0.55243172804E+01 -0.82977525412E+02  0.87152307502E+02  0.00000000000E+00 0.  1.
</event>
<event>
 5   0  0.8936300E+00  0.7800956E+02  0.7957747E-01  0.1333005E+00
        1   -1    0    0  501    0  0.00000000000E+00  0.00000000000E+00  0.16134956396E+02  0.16134956396E+02  0.00000000000E+00 0. -1.
       -2   -1    0    0    0  501  0.00000000000E+00  0.00000000000E+00 -0.94290485905E+02  0.94290485905E+02  0.00000000000E+00 0.  1.
      -24    2    1    2    0    0  0.00000000000E+00  0.00000000000E+00 -0.78155529509E+02  0.11042544230E+03  0.78009560404E+02 0.  0.
       11    1    3    3    0    0 -0.14203062107E+02  0.13749777102E+02  0.85186014697E+01  0.21525564210E+02  0.00000000000E+00 0. -1.
      -12    1    3    3    0    0  0.14203062107E+02 -0.13749777102E+02 -0.86674130979E+02  0.88899878091E+02  0.00000000000E+00 0.  1.
</event>
<event>
 5   0  0.8936300E+00  0.8287056E+02  0.7957747E-01  0.1320027E+00
        1   -1    0    0  501    0  0.00000000000E+00  0.00000000000E+00  0.38550591942E+02  0.38550591942E+02  0.00000000000E+00 0. -1.
       -2   -1    0    0    0  501  0.00000000000E+00  0.00000000000E+00 -0.44535824266E+02  0.44535824266E+02  0.00000000000E+00 0.  1.
      -24    2    1    2    0    0  0.00000000000E+00  0.00000000000E+00 -0.59852323238E+01  0.83086416208E+02  0.82870559021E+02 0.  0.
       11    1    3    3    0    0 -0.76486588667E+00  0.18921961377E+02  0.33957915676E+02  0.38881431034E+02  0.00000000000E+00 0. -1.
      -12    1    3    3    0    0  0.76486588667E+00 -0.18921961377E+02 -0.39943148000E+02  0.44204985175E+02  0.00000000000E+00 0.  1.
</event>
<event>
 5   0  0.8936300E+00  0.8126534E+02  0.7957747E-01  0.1324199E+00
        1   -1    0    0  501    0  0.00000000000E+00  0.00000000000E+00  0.29418676267E+03  0.29418676267E+03  0.00000000000E+00 0. -1.
       -2   -1    0    0    0  501  0.00000000000E+00  0.00000000000E+00 -0.56121280761E+01  0.56121280761E+01  0.00000000000E+00 0.  1.
      -24    2    1    2    0    0  0.00000000000E+00  0.00000000000E+00  0.28857463460E+03  0.29979889075E+03  0.81265338009E+02 0.  0.
       11    1    3    3    0    0 -0.86478080333E+01 -0.38334285153E+02  0.18239660881E+03  0.18658195226E+03  0.00000000000E+00 0. -1.
      -12    1    3    3    0    0  0.86478080333E+01  0.38334285153E+02  0.10617802578E+03  0.11321693849E+03  0.00000000000E+00 0.  1.
</event>
<event>
 5   0  0.8936300E+00  0.8064043E+02  0.7957747E-01  0.1325852E+00
        1   -1    0    0  501    0  0.00000000000E+00  0.00000000000E+00  0.12176644049E+03  0.12176644049E+03  0.00000000000E+00 0. -1.
       -2   -1    0    0    0  501  0.00000000000E+00  0.00000000000E+00 -0.13351131021E+02  0.13351131021E+02  0.00000000000E+00 0.  1.
      -24    2    1    2    0    0  0.00000000000E+00  0.00000000000E+00  0.10841530947E+03  0.13511757151E+03  0.80640429089E+02 0.  0.
       11    1    3    3    0    0  0.25821886666E+02  0.24121476437E+01  0.10593681075E+03  0.10906510055E+03  0.00000000000E+00 0. -1.
      -12    1    3    3    0    0 -0.25821886666E+02 -0.24121476437E+01  0.24784987248E+01  0.26052470961E+02  0.00000000000E+00 0.  1.
</event>
<event>
 5   0  0.8936300E+00  0.7994195E+02  0.7957747E-01  0.1327721E+00
        1   -1    0    0  501    0  0.00000000000E+00  0.00000000000E+00  0.61701760067E+01  0.61701760067E+01  0.00000000000E+00 0. -1.
       -2   -1    0    0    0  501  0.00000000000E+00  0.00000000000E+00 -0.25893569586E+03  0.25893569586E+03  0.00000000000E+00 0.  1.
      -24    2    1    2    0    0  0.00000000000E+00  0.00000000000E+00 -0.25276551986E+03  0.26510587187E+03  0.79941949386E+02 0.  0.
       11    1    3    3    0    0  0.15006634105E+02 -0.29332560279E+01 -0.39121112523E+01  0.15783145204E+02  0.00000000000E+00 0. -1.
      -12    1    3    3    0    0 -0.15006634105E+02  0.29332560279E+01 -0.24885340861E+03  0.24932272667E+03  0.00000000000E+00 0.  1.
</event>
<event>
 5   0  0.8936300E+00  0.8077477E+02  0.7957747E-01  0.1325495E+00
        1   -1    0    0  501    0  0.00000000000E+00  0.00000000000E+00  0.14752824700E+02  0.14752824700E+02  0.00000000000E+00 0. -1.
       -2   -1    0    0    0  501  0.00000000000E+00  0.00000000000E+00 -0.11056464699E+03  0.11056464699E+03  0.00000000000E+00 0.  1.
      -24    2    1    2    0    0  0.00000000000E+00  0.00000000000E+00 -0.95811822291E+02  0.12531747169E+03  0.80774769703E+02 0.  0.
       11    1    3    3    0    0 -0.18965488778E+02 -0.86301982000E+01  0.57697828470E+01  0.21620834389E+02  0.00000000000E+00 0. -1.
      -12    1    3    3    0    0  0.18965488778E+02  0.86301982000E+01 -0.10158160514E+03  0.10369663730E+03  0.00000000000E+00 0.  1.
</event>
<event>
 5   0  0.8936300E+00  0.7841707E+02  0.7957747E-01  0.1331877E+00
        1   -1    0    0  501    0  0.00000000000E+00  0.00000000000E+00  0.48733589061E+01  0.48733589061E+01  0.00000000000E+00 0. -1.
       -2   -1    0    0    0  501  0.00000000000E+00  0.00000000000E+00 -0.31545166640E+03  0.31545166640E+03  0.00000000000E+00 0.  1.
      -24    2    1    2    0    0  0.00000000000E+00  0.00000000000E+00 -0.31057830749E+03  0.32032502530E+03  0.78417069261E+02 0.  0.
       11    1    3    3    0    0  0.10714317395E+02 -0.36276332253E+02 -0.11312559712E+03  0.11928189134E+03  0.00000000000E+00 0. -1.
      -12    1    3    3    0    0 -0.10714317395E+02  0.36276332253E+02 -0.19745271037E+03  0.20104313396E+03  0.00000000000E+00 0.  1.
</event>
<event>
 5   0  0.8936300E+00  0.8053910E+02  0.7957747E-01  0.1326122E+00
        1   -1    0    0  501    0  0.00000000000E+00  0.00000000000E+00  0.44382355585E+01  0.44382355585E+01  0.00000000000E+00 0. -1.
       -2   -1    0    0    0  501  0.00000000000E+00  0.00000000000E+00 -0.36537866539E+03  0.36537866539E+03  0.00000000000E+00 0.  1.
      -24    2    1    2    0    0  0.00000000000E+00  0.00000000000E+00 -0.36094042983E+03  0.36981690095E+03  0.80539098208E+02 0.  0.
       11    1    3    3    0    0 -0.21080459005E+02  0.16379353390E+02 -0.42032571536E+02  0.49793634526E+02  0.00000000000E+00 0. -1.
      -12    1    3    3    0    0  0.21080459005E+02 -0.16379353390E+02 -0.31890785830E+03  0.32002326642E+03  0.00000000000E+00 0.  1.
</event>
<event>
 5   0  0.8936300E+00  0.7416748E+02  0.7957747E-01  0.1344046E+00
        1   -1    0    0  501    0  0.00000000000E+00  0.00000000000E+00  0.70861901594E+02  0.70861901594E+02  0.00000000000E+00 0. -1.
       -2   -1    0    0    0  501  0.00000000000E+00  0.00000000000E+00 -0.19406811810E+02  0.19406811810E+02  0.00000000000E+00 0.  1.
      -24    2    1    2    0    0  0.00000000000E+00  0.00000000000E+00  0.51455089784E+02  0.90268713404E+02  0.74167475048E+02 0.  0.
       11    1    3    3    0    0  0.33956305825E+01  0.36085399855E+02  0.35273558187E+02  0.50575787655E+02  0.00000000000E+00 0. -1.
      -12    1    3    3    0    0 -0.33956305825E+01 -0.36085399855E+02  0.16181531597E+02  0.39692925750E+02  0.00000000000E+00 0.  1.
</event>
<event>
 5   0  0.8936300E+00  0.8306600E+02  0.7957747E-01  0.1319526E+00
        1   -1    0    0  501    0  0.00000000000E+00  0.00000000000E+00  0.88393586595E+02  0.88393586595E+02  0.00000000000E+00 0. -1.
       -2   -1    0    0    0  501  0.00000000000E+00  0.00000000000E+00 -0.19514876207E+02  0.19514876207E+02  0.00000000000E+00 0.  1.
      -24    2    1    2    0    0  0.00000000000E+00  0.00000000000E+00  0.68878710388E+02  0.10790846280E+03  0.83065995447E+02 0.  0.
       11    1    3    3    0    0  0.78009189724E+01 -0.39686981251E+02  0.22178518751E+02  0.46128055580E+02  0.00000000000E+00 0. -1.
      -12    1    3    3    0    0 -0.78009189724E+01  0.39686981251E+02  0.46700191637E+02  0.61780407222E+02  0.00000000000E+00 0.  1.
</event>
<event>
 5   0  0.8936300E+00  0.7931914E+02  0.7957747E-01  0.1329405E+00
        1   -1    0    0  501    0  0.00000000000E+00  0.00000000000E+00  0.10113679433E+02  0.10113679433E+02  0.00000000000E+00 0. -1.
       -2   -1    0    0    0  501  0.00000000000E+00  0.00000000000E+00 -0.15552021340E+03  0.15552021340E+03  0.00000000000E+00 0.  1.
      -24    2    1    2    0    0  0.00000000000E+00  0.00000000000E+00 -0.14540653396E+03  0.16563389283E+03  0.79319142297E+02 0.  0.
       11    1    3    3    0    0 -0.16187092184E+02  0.26752575470E+02 -0.21759878923E+02  0.38094810387E+02  0.00000000000E+00 0. -1.
      -12    1    3    3    0    0  0.16187092184E+02 -0.26752575470E+02 -0.12364665504E+03  0.12753908244E+03  0.00000000000E+00 0.  1.
</event>
<event>
 5   0  0.8936300E+00  0.8050504E+02  0.7957747E-01  0.1326213E+00
        1   -1    0    0  501    0  0.00000000000E+00  0.00000000000E+00  0.87610239578E+01  0.87610239578E+01  0.00000000000E+00 0. -1.
       -2   -1    0    0    0  501  0.00000000000E+00  0.00000000000E+00 -0.18494018598E+03  0.18494018598E+03  0.00000000000E+00 0.  1.
      -24    2    1    2    0    0  0.00000000000E+00  0.00000000000E+00 -0.17617916202E+03  0.19370120994E+03  0.80505040839E+02 0.  0.
       11    1    3    3    0    0  0.79627631040E+01 -0.37941568505E+02 -0.62030862754E+02  0.73149136365E+02  0.00000000000E+00 0. -1.
      -12    1    3    3    0    0 -0.79627631040E+01  0.37941568505E+02 -0.11414829927E+03  0.12055207357E+03  0.00000000000E+00 0.  1.
</event>
<event>
 5   0  0.8936300E+00  0.7903514E+02  0.7957747E-01  0.1330179E+00
        1   -1    0    0  501    0  0.00000000000E+00  0.00000000000E+00  0.54215424620E+02  0.54215424620E+02  0.00000000000E+00 0. -1.
       -2   -1    0    0    0  501  0.00000000000E+00  0.00000000000E+00 -0.28804321445E+02  0.28804321445E+02  0.00000000000E+00 0.  1.
      -24    2    1    2    0    0  0.00000000000E+00  0.00000000000E+00  0.25411103175E+02  0.83019746066E+02  0.79035144539E+02 0.  0.
       11    1    3    3    0    0  0.19635304787E+02  0.15221832454E+02  0.44985783122E+02  0.51390369335E+02  0.00000000000E+00 0. -1.
      -12    1    3    3    0    0 -0.19635304787E+02 -0.15221832454E+02 -0.19574679947E+02  0.31629376730E+02  0.00000000000E+00 0.  1.
</event>
<event>
 5   0  0.8936300E+00  0.8035796E+02  0.7957747E-01  0.1326605E+00
        1   -1    0    0  501    0  0.00000000000E+00  0.00000000000E+00  0.26592422143E+02  0.26592422143E+02  0.00000000000E+00 0. -1.
       -2   -1    0    0    0  501  0.00000000000E+00  0.00000000000E+00 -0.60707153727E+02  0.60707153727E+02  0.00000000000E+00 0.  1.
      -24    2    1    2    0    0  0.00000000000E+00  0.00000000000E+00 -0.34114731584E+02  0.87299575871E+02  0.80357955649E+02 0.  0.
       11    1    3    3    0    0  0.13739504117E+02 -0.25199924512E+02  0.13487991095E+02  0.31713342186E+02  0.00000000000E+00 0. -1.
      -12    1    3    3    0    0 -0.13739504117E+02  0.25199924512E+02 -0.47602722680E+02  0.55586233685E+02  0.00000000000E+00 0.  1.
</event>
<event>
 5   0  0.8936300E+00  0.8046791E+02  0.7957747E-01  0.1326312E+00
        1   -1    0    0  501    0  0.00000000000E+00  0.00000000000E+00  0.15458000219E+03  0.15458000219E+03  0.00000000000E+00 0. -1.
       -2   -1    0    0    0  501  0.00000000000E+00  0.00000000000E+00 -0.10472059551E+02  0.10472059551E+02  0.00000000000E+00 0.  1.
      -24    2    1    2    0    0  0.00000000000E+00  0.00000000000E+00  0.14410794264E+03  0.16505206174E+03  0.80467906354E+02 0.  0.
       11    1    3    3    0    0  0.34339338024E+02 -0.19141278078E+02  0.54505833928E+02  0.67204647120E+02  0.00000000000E+00 0. -1.
      -12    1    3    3    0    0 -0.34339338024E+02  0.19141278078E+02  0.89602108711E+02  0.97847414620E+02  0.00000000000E+00 0.  1.
</event>
<event>
 5   0  0.8936300E+00  0.7694644E+02  0.7957747E-01  0.1335987E+00
        1   -1    0    0  501    0  0.00000000000E+00  0.00000000000E+00  0.85313591654E+02  0.85313591654E+02  0.00000000000E+00 0. -1.
       -2   -1    0    0    0  501  0.00000000000E+00  0.00000000000E+00 -0.17349974035E+02  0.17349974035E+02  0.00000000000E+00 0.  1.
      -24    2    1    2    0    0  0.00000000000E+00  0.00000000000E+00  0.67963617619E+02  0.10266356569E+03  0.76946438516E+02 0.  0.
       11    1    3    3    0    0 -0.18459202838E+02  0.28654840119E+02  0.57787341673E+02  0.67091123774E+02  0.00000000000E+00 0. -1.
      -12    1    3    3    0    0  0.18459202838E+02 -0.28654840119E+02  0.10176275946E+02  0.35572441915E+02  0.00000000000E+00 0.  1.
</event>
<event>
 5   0  0.8936300E+00  0.7974527E+02  0.7957747E-01  0.1328251E+00
        1   -1    0    0  501    0  0.00000000000E+00  0.00000000000E+00  0.42431357152E+01  0.42431357152E+01  0.00000000000E+00 0. -1.
       -2   -1    0    0    0  501  0.00000000000E+00  0.00000000000E+00 -0.37468208865E+03  0.37468208865E+03  0.00000000000E+00 0.  1.
      -24    2    1    2    0    0  0.00000000000E+00  0.00000000000E+00 -0.37043895294E+03  0.37892522437E+03  0.79745268253E+02 0.  0.
       11    1    3    3    0    0  0.29891861311E+02  0.25648002681E+02 -0.15574228590E+03  0.16064558204E+03  0.00000000000E+00 0. -1.
      -12    1    3    3    0    0 -0.29891861311E+02 -0.25648002681E+02 -0.21469666704E+03  0.21827964232E+03  0.00000000000E+00 0.  1.
</event>
<event>
 5   0  0.8936300E+00  0.8098204E+02  0.7957747E-01  0.1324946E+00
        1   -1    0    0  501    0  0.00000000000E+00  0.00000000000E+00  0.14355612958E+02  0.14355612958E+02  0.00000000000E+00 0. -1.
       -2   -1    0    0    0  501  0.00000000000E+00  0.00000000000E+00 -0.11420777035E+03  0.11420777035E+03  0.00000000000E+00 0.  1.
      -24    2    1    2    0    0  0.00000000000E+00  0.00000000000E+00 -0.99852157388E+02  0.12856338330E+03  0.80982036226E+02 0.  0.
       11    1    3    3    0    0 -0.13645681988E+02 -0.21148443396E+02  0.42871394349E+00  0.25172308012E+02  0.00000000000E+00 0. -1.
      -12    1    3    3    0    0  0.13645681988E+02  0.21148443396E+02 -0.10028087133E+03  0.10339107529E+03  0.00000000000E+00 0.  1.
</event>
<event>
 5   0  0.8936300E+00  0.7734482E+02  0.7957747E-01  0.1334863E+00
        1   -1    0    0  501    0  0.00000000000E+00  0.00000000000E+00  0.22046309578E+01  0.22046309578E+01  0.00000000000E+00 0. -1.
       -2   -1    0    0    0  501  0.00000000000E+00  0.00000000000E+00 -0.67836984277E+03  0.67836984277E+03  0.00000000000E+00 0.  1.
      -24    2    1    2    0    0  0.00000000000E+00  0.00000000000E+00 -0.67616521181E+03  0.68057447373E+03  0.77344816406E+02 0.  0.
       11    1    3    3    0    0 -0.14089424458E+02 -0.85159494138E+01 -0.30169823671E+02  0.34369340062E+02  0.00000000000E+00 0. -1.
      -12    1    3    3    0    0  0.14089424458E+02  0.85159494138E+01 -0.64599538814E+03  0.64620513367E+03  0.00000000000E+00 0.  1.
</event>
<event>
 5   0  0.8936300E+00  0.8065848E+02  0.7957747E-01  0.1325804E+00
        1   -1    0    0  501    0  0.00000000000E+00  0.00000000000E+00  0.78795889945E+02  0.78795889945E+02  0.00000000000E+00 0. -1.
       -2   -1    0    0    0  501  0.00000000000E+00  0.00000000000E+00 -0.20641273113E+02  0.20641273113E+02  0.00000000000E+00 0.  1.
      -24    2    1    2    0    0  0.00000000000E+00  0.00000000000E+00  0.58154616833E+02  0.99437163058E+02  0.80658477161E+02 0.  0.
       11    1    3    3    0    0 -0.30892287430E+02 -0.20123818345E+02  0.49227215261E+02  0.61503009762E+02  0.00000000000E+00 0. -1.
      -12    1    3    3    0    0  0.30892287430E+02  0.20123818345E+02  0.89274015720E+01  0.37934153296E+02  0.00000000000E+00 0.  1.
</event>
<event>
 5   0  0.8936300E+00  0.8190901E+02  0.7957747E-01  0.1322513E+00
        1   -1    0    0  501    0  0.00000000000E+00  0.00000000000E+00  0.19180696020E+02  0.19180696020E+02  0.00000000000E+00 0. -1.
       -2   -1    0    0    0  501  0.00000000000E+00  0.00000000000E+00 -0.87445804625E+02  0.87445804625E+02  0.00000000000E+00 0.  1.
      -24    2    1    2    0    0  0.00000000000E+00  0.00000000000E+00 -0.68265108604E+02  0.10662650065E+03  0.81909007973E+02 0.  0.
       11    1    3    3    0    0  0.66961082443E+00  0.34932269061E+02 -0.63173516684E+01  0.35505221201E+02  0.00000000000E+00 0. -1.
      -12    1    3    3    0    0 -0.66961082443E+00 -0.34932269061E+02 -0.61947756936E+02  0.71121279444E+02  0.00000000000E+00 0.  1.
</event>
<event>
 5   0  0.8936300E+00  0.8037622E+02  0.7957747E-01  0.1326557E+00
       -2   -1    0    0    0  501  0.00000000000E+00  0.00000000000E+00  0.26301237728E+02  0.26301237728E+02  0.00000000000E+00 0.  1.
        1   -1    0    0  501    0  0.00000000000E+00  0.00000000000E+00 -0.61407154224E+02  0.61407154224E+02  0.00000000000E+00 0. -1.
      -24    2    1    2    0    0  0.00000000000E+00  0.00000000000E+00 -0.35105916497E+02  0.87708391952E+02  0.80376219404E+02 0.  0.
       11    1    3    3    0    0 -0.74179839937E+01 -0.25640652811E+02 -0.50337170334E+02  0.56976313327E+02  0.00000000000E+00 0. -1.
      -12    1    3    3    0    0  0.74179839937E+01  0.25640652811E+02  0.15231253838E+02  0.30732078625E+02  0.00000000000E+00 0.  1.
</event>
<event>
 5   0  0.8936300E+00  0.7940511E+02  0.7957747E-01  0.1329172E+00
       -2   -1    0    0    0  501  0.00000000000E+00  0.00000000000E+00  0.59530463396E+02  0.59530463396E+02  0.00000000000E+00 0.  1.
        1   -1    0    0  501    0  0.00000000000E+00  0.00000000000E+00 -0.26478761287E+02  0.26478761287E+02  0.00000000000E+00 0. -1.
      -24    2    1    2    0    0  0.00000000000E+00  0.00000000000E+00  0.33051702110E+02  0.86009224683E+02  0.79405111411E+02 0.  0.
       11    1    3    3    0    0  0.62234352043E+01 -0.31852011891E+02 -0.82456335598E+01  0.33485403985E+02  0.00000000000E+00 0. -1.
      -12    1    3    3    0    0 -0.62234352043E+01  0.31852011891E+02  0.41297335669E+02  0.52523820697E+02  0.00000000000E+00 0.  1.
</event>
<event>
 5   0  0.8936300E+00  0.7105564E+02  0.7957747E-01  0.1353561E+00
        1   -1    0    0  501    0  0.00000000000E+00  0.00000000000E+00  0.77953534457E+02  0.77953534457E+02  0.00000000000E+00 0. -1.
       -2   -1    0    0    0  501  0.00000000000E+00  0.00000000000E+00 -0.16192030090E+02  0.16192030090E+02  0.00000000000E+00 0.  1.
      -24    2    1    2    0    0  0.00000000000E+00  0.00000000000E+00  0.61761504367E+02  0.94145564547E+02  0.71055639482E+02 0.  0.
       11    1    3    3    0    0  0.12538046204E+02  0.30314936631E+02  0.12809407958E+02  0.35217593867E+02  0.00000000000E+00 0. -1.
      -12    1    3    3    0    0 -0.12538046204E+02 -0.30314936631E+02  0.48952096409E+02  0.58927970680E+02  0.00000000000E+00 0.  1.
</event>
<event>
 5   0  0.8936300E+00  0.8059113E+02  0.7957747E-01  0.1325983E+00
        1   -1    0    0  501    0  0.00000000000E+00  0.00000000000E+00  0.12835603400E+02  0.12835603400E+02  0.00000000000E+00 0. -1.
       -2   -1    0    0    0  501  0.00000000000E+00  0.00000000000E+00 -0.12650224336E+03  0.12650224336E+03  0.00000000000E+00 0.  1.
      -24    2    1    2    0    0  0.00000000000E+00  0.00000000000E+00 -0.11366663996E+03  0.13933784676E+03  0.80591131645E+02 0.  0.
       11    1    3    3    0    0 -0.12701522966E+02 -0.77297247702E+01  0.79192960072E+01  0.16846144364E+02  0.00000000000E+00 0. -1.
      -12    1    3    3    0    0  0.12701522966E+02  0.77297247702E+01 -0.12158593597E+03  0.12249170240E+03  0.00000000000E+00 0.  1.
</event>
<event>
 5   0  0.8936300E+00  0.7536409E+02  0.7957747E-01  0.1340528E+00
        1   -1    0    0  501    0  0.00000000000E+00  0.00000000000E+00  0.44891835447E+01  0.44891835447E+01  0.00000000000E+00 0. -1.
       -2   -1    0    0    0  501  0.00000000000E+00  0.00000000000E+00 -0.31630173890E+03  0.31630173890E+03  0.00000000000E+00 0.  1.
      -24    2    1    2    0    0  0.00000000000E+00  0.00000000000E+00 -0.31181255535E+03  0.32079092244E+03  0.75364091222E+02 0.  0.
       11    1    3    3    0    0  0.36928206153E+02  0.46863064120E+01 -0.13098358218E+03  0.13617030762E+03  0.00000000000E+00 0. -1.
      -12    1    3    3    0    0 -0.36928206153E+02 -0.46863064120E+01 -0.18082897317E+03  0.18462061482E+03  0.00000000000E+00 0.  1.
</event>
<event>
 5   0  0.8936300E+00  0.8013164E+02  0.7957747E-01  0.1327211E+00
        1   -1    0    0  501    0  0.00000000000E+00  0.00000000000E+00  0.26868639778E+02  0.26868639778E+02  0.00000000000E+00 0. -1.
       -2   -1    0    0    0  501  0.00000000000E+00  0.00000000000E+00 -0.59745120144E+02  0.59745120144E+02  0.00000000000E+00 0.  1.
      -24    2    1    2    0    0  0.00000000000E+00  0.00000000000E+00 -0.32876480366E+02  0.86613759921E+02  0.80131644476E+02 0.  0.
       11    1    3    3    0    0  0.73797572588E+01  0.25562391512E+02  0.15941207817E+02  0.31016427642E+02  0.00000000000E+00 0. -1.
      -12    1    3    3    0    0 -0.73797572588E+01 -0.25562391512E+02 -0.48817688183E+02  0.55597332279E+02  0.00000000000E+00 0.  1.
</event>
<event>
 5   0  0.8936300E+00  0.8195162E+02  0.7957747E-01  0.1322402E+00
       -2   -1    0    0    0  501  0.00000000000E+00  0.00000000000E+00  0.17386507611E+02  0.17386507611E+02  0.00000000000E+00 0.  1.
        1   -1    0    0  501    0  0.00000000000E+00  0.00000000000E+00 -0.96570102483E+02  0.96570102483E+02  0.00000000000E+00 0. -1.
      -24    2    1    2    0    0  0.00000000000E+00  0.00000000000E+00 -0.79183594872E+02  0.11395661009E+03  0.81951615526E+02 0.  0.
       11    1    3    3    0    0  0.59606551983E+01  0.21495089123E+02 -0.87387561658E+02  0.90189545954E+02  0.00000000000E+00 0. -1.
      -12    1    3    3    0    0 -0.59606551983E+01 -0.21495089123E+02  0.82039667865E+01  0.23767064140E+02  0.00000000000E+00 0.  1.
</event>
<event>
 5   0  0.8936300E+00  0.8032783E+02  0.7957747E-01  0.1326686E+00
        1   -1    0    0  501    0  0.00000000000E+00  0.00000000000E+00  0.62019240057E+01  0.62019240057E+01  0.00000000000E+00 0. -1.
       -2   -1    0    0    0  501  0.00000000000E+00  0.00000000000E+00 -0.26010316283E+03  0.26010316283E+03  0.00000000000E+00 0.  1.
      -24    2    1    2    0    0  0.00000000000E+00  0.00000000000E+00 -0.25390123882E+03  0.26630508683E+03  0.80327829536E+02 0.  0.
       11    1    3    3    0    0  0.99984154240E+01 -0.36003498431E+02 -0.78123279284E+02  0.86599462911E+02  0.00000000000E+00 0. -1.
      -12    1    3    3    0    0 -0.99984154240E+01  0.36003498431E+02 -0.17577795954E+03  0.17970562392E+03  0.00000000000E+00 0.  1.
</event>
<event>
 5   0  0.8936300E+00  0.8202969E+02  0.7957747E-01  0.1322199E+00
        1   -1    0    0  501    0  0.00000000000E+00  0.00000000000E+00  0.85682075696E+01  0.85682075696E+01  0.00000000000E+00 0. -1.
       -2   -1    0    0    0  501  0.00000000000E+00  0.00000000000E+00 -0.19633248779E+03  0.19633248779E+03  0.00000000000E+00 0.  1.
      -24    2    1    2    0    0  0.00000000000E+00  0.00000000000E+00 -0.18776428023E+03  0.20490069536E+03  0.82029689944E+02 0.  0.
       11    1    3    3    0    0  0.38066812057E+02  0.13840119997E+02 -0.77773901324E+02  0.87689285713E+02  0.00000000000E+00 0. -1.
      -12    1    3    3    0    0 -0.38066812057E+02 -0.13840119997E+02 -0.10999037890E+03  0.11721140965E+03  0.00000000000E+00 0.  1.
</event>
<event>
 5   0  0.8936300E+00  0.7863842E+02  0.7957747E-01  0.1331267E+00
        1   -1    0    0  501    0  0.00000000000E+00  0.00000000000E+00  0.12889108065E+02  0.12889108065E+02  0.00000000000E+00 0. -1.
       -2   -1    0    0    0  501  0.00000000000E+00  0.00000000000E+00 -0.11994625361E+03  0.11994625361E+03  0.00000000000E+00 0.  1.
      -24    2    1    2    0    0  0.00000000000E+00  0.00000000000E+00 -0.10705714555E+03  0.13283536168E+03  0.78638418723E+02 0.  0.
       11    1    3    3    0    0  0.28569228966E+02 -0.13114301867E+02 -0.13633081480E+02  0.34264364402E+02  0.00000000000E+00 0. -1.
      -12    1    3    3    0    0 -0.28569228966E+02  0.13114301867E+02 -0.93424064067E+02  0.98570997276E+02  0.00000000000E+00 0.  1.
</event>
<event>
 5   0  0.8936300E+00  0.8084027E+02  0.7957747E-01  0.1325322E+00
        1   -1    0    0  501    0  0.00000000000E+00  0.00000000000E+00  0.73230615770E+02  0.73230615770E+02  0.00000000000E+00 0. -1.
       -2   -1    0    0    0  501  0.00000000000E+00  0.00000000000E+00 -0.22310169645E+02  0.22310169645E+02  0.00000000000E+00 0.  1.
      -24    2    1    2    0    0  0.00000000000E+00  0.00000000000E+00  0.50920446125E+02  0.95540785415E+02  0.80840273652E+02 0.  0.
       11    1    3    3    0    0 -0.18317188776E+02  0.33682795549E+02  0.40583116712E+02  0.55830453005E+02  0.00000000000E+00 0. -1.
      -12    1    3    3    0    0  0.18317188776E+02 -0.33682795549E+02  0.10337329413E+02  0.39710332410E+02  0.00000000000E+00 0.  1.
</event>
<event>
 5   0  0.8936300E+00  0.8260739E+02  0.7957747E-01  0.1320703E+00
        1   -1    0    0  501    0  0.00000000000E+00  0.00000000000E+00  0.13530523230E+02  0.13530523230E+02  0.00000000000E+00 0. -1.
       -2   -1    0    0    0  501  0.00000000000E+00  0.00000000000E+00 -0.12608492955E+03  0.12608492955E+03  0.00000000000E+00 0.  1.
      -24    2    1    2    0    0  0.00000000000E+00  0.00000000000E+00 -0.11255440632E+03  0.13961545277E+03  0.82607386307E+02 0.  0.
       11    1    3    3    0    0 -0.35855566810E+02 -0.12022856650E+02 -0.28207948427E+02  0.47179011305E+02  0.00000000000E+00 0. -1.
      -12    1    3    3    0    0  0.35855566810E+02  0.12022856650E+02 -0.84346457888E+02  0.92436441470E+02  0.00000000000E+00 0.  1.
</event>
<event>
 5   0  0.8936300E+00  0.8106265E+02  0.7957747E-01  0.1324733E+00
        1   -1    0    0  501    0  0.00000000000E+00  0.00000000000E+00  0.47400592668E+01  0.47400592668E+01  0.00000000000E+00 0. -1.
       -2   -1    0    0    0  501  0.00000000000E+00  0.00000000000E+00 -0.34657550767E+03  0.34657550767E+03  0.00000000000E+00 0.  1.
      -24    2    1    2    0    0  0.00000000000E+00  0.00000000000E+00 -0.34183544840E+03  0.35131556694E+03  0.81062653466E+02 0.  0.
       11    1    3    3    0    0  0.13845573583E+02  0.17293844736E+02 -0.23820329604E+02  0.32529756778E+02  0.00000000000E+00 0. -1.
      -12    1    3    3    0    0 -0.13845573583E+02 -0.17293844736E+02 -0.31801511880E+03  0.31878581016E+03  0.00000000000E+00 0.  1.
</event>
<event>
 5   0  0.8936300E+00  0.7898960E+02  0.7957747E-01  0.1330304E+00
        1   -1    0    0  501    0  0.00000000000E+00  0.00000000000E+00  0.34562721095E+02  0.34562721095E+02  0.00000000000E+00 0. -1.
       -2   -1    0    0    0  501  0.00000000000E+00  0.00000000000E+00 -0.45130680336E+02  0.45130680336E+02  0.00000000000E+00 0.  1.
      -24    2    1    2    0    0  0.00000000000E+00  0.00000000000E+00 -0.10567959241E+02  0.79693401432E+02  0.78989597222E+02 0.  0.
       11    1    3    3    0    0  0.24119811600E+02 -0.19611783102E+02  0.19293943347E+02  0.36587478704E+02  0.00000000000E+00 0. -1.
      -12    1    3    3    0    0 -0.24119811600E+02  0.19611783102E+02 -0.29861902588E+02  0.43105922728E+02  0.00000000000E+00 0.  1.
</event>
<event>
 5   0  0.8936300E+00  0.8237507E+02  0.7957747E-01  0.1321303E+00
        1   -1    0    0  501    0  0.00000000000E+00  0.00000000000E+00  0.66291525047E+02  0.66291525047E+02  0.00000000000E+00 0. -1.
       -2   -1    0    0    0  501  0.00000000000E+00  0.00000000000E+00 -0.25590195664E+02  0.25590195664E+02  0.00000000000E+00 0.  1.
      -24    2    1    2    0    0  0.00000000000E+00  0.00000000000E+00  0.40701329382E+02  0.91881720711E+02  0.82375071395E+02 0.  0.
       11    1    3    3    0    0  0.28154335830E+02 -0.22987645940E+02  0.41959484510E+02  0.55513032995E+02  0.00000000000E+00 0. -1.
      -12    1    3    3    0    0 -0.28154335830E+02  0.22987645940E+02 -0.12581551281E+01  0.36368687716E+02  0.00000000000E+00 0.  1.
</event>
<event>
 5   0  0.8936300E+00  0.8728628E+02  0.7957747E-01  0.1309081E+00
        1   -1    0    0  501    0  0.00000000000E+00  0.00000000000E+00  0.74626399503E+02  0.74626399503E+02  0.00000000000E+00 0. -1.
       -2   -1    0    0    0  501  0.00000000000E+00  0.00000000000E+00 -0.25523458067E+02  0.25523458067E+02  0.00000000000E+00 0.  1.
      -24    2    1    2    0    0  0.00000000000E+00  0.00000000000E+00  0.49102941435E+02  0.10014985757E+03  0.87286282506E+02 0.  0.
       11    1    3    3    0    0  0.28492241726E+00 -0.16991005911E+02  0.70674526381E+02  0.72688817172E+02  0.00000000000E+00 0. -1.
      -12    1    3    3    0    0 -0.28492241726E+00  0.16991005911E+02 -0.21571584946E+02  0.27461040398E+02  0.00000000000E+00 0.  1.
</event>
<event>
 5   0  0.8936300E+00  0.7797347E+02  0.7957747E-01  0.1333106E+00
        1   -1    0    0  501    0  0.00000000000E+00  0.00000000000E+00  0.14522222074E+02  0.14522222074E+02  0.00000000000E+00 0. -1.
       -2   -1    0    0    0  501  0.00000000000E+00  0.00000000000E+00 -0.10466479263E+03  0.10466479263E+03  0.00000000000E+00 0.  1.
      -24    2    1    2    0    0  0.00000000000E+00  0.00000000000E+00 -0.90142570555E+02  0.11918701470E+03  0.77973466303E+02 0.  0.
       11    1    3    3    0    0  0.16349345083E+02  0.35242882495E+02 -0.40093834898E+02  0.55829001854E+02  0.00000000000E+00 0. -1.
      -12    1    3    3    0    0 -0.16349345083E+02 -0.35242882495E+02 -0.50048735656E+02  0.63358012848E+02  0.00000000000E+00 0.  1.
</event>
<event>
 5   0  0.8936300E+00  0.8000523E+02  0.7957747E-01  0.1327551E+00
       -2   -1    0    0    0  501  0.00000000000E+00  0.00000000000E+00  0.53970786530E+02  0.53970786530E+02  0.00000000000E+00 0.  1.
        1   -1    0    0  501    0  0.00000000000E+00  0.00000000000E+00 -0.29649547124E+02  0.29649547124E+02  0.00000000000E+00 0. -1.
      -24    2    1    2    0    0  0.00000000000E+00  0.00000000000E+00  0.24321239405E+02  0.83620333654E+02  0.80005234292E+02 0.  0.
       11    1    3    3    0    0  0.15350502906E+02 -0.17089935240E+02 -0.22068306051E+02  0.31854575149E+02  0.00000000000E+00 0. -1.
      -12    1    3    3    0    0 -0.15350502906E+02  0.17089935240E+02  0.46389545456E+02  0.51765758505E+02  0.00000000000E+00 0.  1.
</event>
<event>
 5   0  0.8936300E+00  0.8433439E+02  0.7957747E-01  0.1316314E+00
        1   -1    0    0  501    0  0.00000000000E+00  0.00000000000E+00  0.10618595509E+02  0.10618595509E+02  0.00000000000E+00 0. -1.
       -2   -1    0    0    0  501  0.00000000000E+00  0.00000000000E+00 -0.16744891639E+03  0.16744891639E+03  0.00000000000E+00 0.  1.
      -24    2    1    2    0    0  0.00000000000E+00  0.00000000000E+00 -0.15683032088E+03  0.17806751190E+03  0.84334389463E+02 0.  0.
       11    1    3    3    0    0  0.61171739964E+01  0.32310438339E+02 -0.22683860707E+02  0.39949240043E+02  0.00000000000E+00 0. -1.
      -12    1    3    3    0    0 -0.61171739964E+01 -0.32310438339E+02 -0.13414646017E+03  0.13811827185E+03  0.00000000000E+00 0.  1.
</event>
<event>
 5   0  0.8936300E+00  0.8051642E+02  0.7957747E-01  0.1326183E+00
        1   -1    0    0  501    0  0.00000000000E+00  0.00000000000E+00  0.32787999275E+02  0.32787999275E+02  0.00000000000E+00 0. -1.
       -2   -1    0    0    0  501  0.00000000000E+00  0.00000000000E+00 -0.49430381120E+02  0.49430381120E+02  0.00000000000E+00 0.  1.
      -24    2    1    2    0    0  0.00000000000E+00  0.00000000000E+00 -0.16642381845E+02  0.82218380396E+02  0.80516415726E+02 0.  0.
       11    1    3    3    0    0 -0.12525313936E+02 -0.24111091145E+02  0.22013574015E+02  0.34968924009E+02  0.00000000000E+00 0. -1.
      -12    1    3    3    0    0  0.12525313936E+02  0.24111091145E+02 -0.38655955860E+02  0.47249456387E+02  0.00000000000E+00 0.  1.
</event>
<event>
 5   0  0.8936300E+00  0.8210422E+02  0.7957747E-01  0.1322005E+00
        1   -1    0    0  501    0  0.00000000000E+00  0.00000000000E+00  0.14903151598E+02  0.14903151598E+02  0.00000000000E+00 0. -1.
       -2   -1    0    0    0  501  0.00000000000E+00  0.00000000000E+00 -0.11308182823E+03  0.11308182823E+03  0.00000000000E+00 0.  1.
      -24    2    1    2    0    0  0.00000000000E+00  0.00000000000E+00 -0.98178676628E+02  0.12798497982E+03  0.82104217407E+02 0.  0.
       11    1    3    3    0    0  0.40998506512E+02 -0.79857639897E+00 -0.46066542982E+02  0.61673670580E+02  0.00000000000E+00 0. -1.
      -12    1    3    3    0    0 -0.40998506512E+02  0.79857639897E+00 -0.52112133645E+02  0.66311309243E+02  0.00000000000E+00 0.  1.
</event>
<event>
 5   0  0.8936300E+00  0.8074110E+02  0.7957747E-01  0.1325585E+00
        1   -1    0    0  501    0  0.00000000000E+00  0.00000000000E+00  0.49529828352E+01  0.49529828352E+01  0.00000000000E+00 0. -1.
       -2   -1    0    0    0  501  0.00000000000E+00  0.00000000000E+00 -0.32905046306E+03  0.32905046306E+03  0.00000000000E+00 0.  1.
      -24    2    1    2    0    0  0.00000000000E+00  0.00000000000E+00 -0.32409748023E+03  0.33400344590E+03  0.80741099707E+02 0.  0.
       11    1    3    3    0    0 -0.72219906759E+01 -0.15623955429E+02 -0.10986670951E+02  0.20419894004E+02  0.00000000000E+00 0. -1.
      -12    1    3    3    0    0  0.72219906759E+01  0.15623955429E+02 -0.31311080927E+03  0.31358355189E+03  0.00000000000E+00 0.  1.
</event>
<event>
 5   0  0.8936300E+00  0.8022331E+02  0.7957747E-01  0.1326966E+00
        1   -1    0    0  501    0  0.00000000000E+00  0.00000000000E+00  0.17030253245E+02  0.17030253245E+02  0.00000000000E+00 0. -1.
       -2   -1    0    0    0  501  0.00000000000E+00  0.00000000000E+00 -0.94475692605E+02  0.94475692605E+02  0.00000000000E+00 0.  1.
      -24    2    1    2    0    0  0.00000000000E+00  0.00000000000E+00 -0.77445439359E+02  0.11150594585E+03  0.80223312586E+02 0.  0.
       11    1    3    3    0    0 -0.35833402659E+02  0.25358294715E+01 -0.13917690626E+02  0.38524865861E+02  0.00000000000E+00 0. -1.
      -12    1    3    3    0    0  0.35833402659E+02 -0.25358294715E+01 -0.63527748733E+02  0.72981079989E+02  0.00000000000E+00 0.  1.
</event>
<event>
 5   0  0.8936300E+00  0.7652167E+02  0.7957747E-01  0.1337194E+00
       -2   -1    0    0    0  501  0.00000000000E+00  0.00000000000E+00  0.48553830305E+02  0.48553830305E+02  0.00000000000E+00 0.  1.
        1   -1    0    0  501    0  0.00000000000E+00  0.00000000000E+00 -0.30149868112E+02  0.30149868112E+02  0.00000000000E+00 0. -1.
      -24    2    1    2    0    0  0.00000000000E+00  0.00000000000E+00  0.18403962194E+02  0.78703698417E+02  0.76521672225E+02 0.  0.
       11    1    3    3    0    0  0.19753517209E+02  0.32680637400E+02  0.67537527208E+01  0.38779358927E+02  0.00000000000E+00 0. -1.
      -12    1    3    3    0    0 -0.19753517209E+02 -0.32680637400E+02  0.11650209473E+02  0.39924339490E+02  0.00000000000E+00 0.  1.
</event>
<event>
 5   0  0.8936300E+00  0.7998028E+02  0.7957747E-01  0.1327618E+00
       -2   -1    0    0    0  501  0.00000000000E+00  0.00000000000E+00  0.47029650912E+02  0.47029650912E+02  0.00000000000E+00 0.  1.
        1   -1    0    0  501    0  0.00000000000E+00  0.00000000000E+00 -0.34004317516E+02  0.34004317516E+02  0.00000000000E+00 0. -1.
      -24    2    1    2    0    0  0.00000000000E+00  0.00000000000E+00  0.13025333396E+02  0.81033968429E+02  0.79980277126E+02 0.  0.
       11    1    3    3    0    0  0.50520142923E+01 -0.95166387951E+01 -0.32506018419E+02  0.34245152880E+02  0.00000000000E+00 0. -1.
      -12    1    3    3    0    0 -0.50520142923E+01  0.95166387951E+01  0.45531351814E+02  0.46788815548E+02  0.00000000000E+00 0.  1.
</event>
<event>
 5   0  0.8936300E+00  0.7918261E+02  0.7957747E-01  0.1329777E+00
       -2   -1    0    0    0  501  0.00000000000E+00  0.00000000000E+00  0.22867696071E+03  0.22867696071E+03  0.00000000000E+00 0.  1.
        1   -1    0    0  501    0  0.00000000000E+00  0.00000000000E+00 -0.68545235849E+01  0.68545235849E+01  0.00000000000E+00 0. -1.
      -24    2    1    2    0    0  0.00000000000E+00  0.00000000000E+00  0.22182243712E+03  0.23553148429E+03  0.79182614771E+02 0.  0.
       11    1    3    3    0    0 -0.28476317847E+02  0.38772885224E+01  0.29911089376E+02  0.41480203857E+02  0.00000000000E+00 0. -1.
      -12    1    3    3    0    0  0.28476317847E+02 -0.38772885224E+01  0.19191134774E+03  0.19405128043E+03  0.00000000000E+00 0.  1.
</event>
<event>
 5   0  0.8936300E+00  0.8077038E+02  0.7957747E-01  0.1325507E+00
       -2   -1    0    0    0  501  0.00000000000E+00  0.00000000000E+00  0.25862815563E+02  0.25862815563E+02  0.00000000000E+00 0.  1.
        1   -1    0    0  501    0  0.00000000000E+00  0.00000000000E+00 -0.63062099807E+02  0.63062099807E+02  0.00000000000E+00 0. -1.
      -24    2    1    2    0    0  0.00000000000E+00  0.00000000000E+00 -0.37199284244E+02  0.88924915371E+02  0.80770377153E+02 0.  0.
       11    1    3    3    0    0  0.40267678320E+02  0.23956084100E+00 -0.21978735958E+02  0.45876008337E+02  0.00000000000E+00 0. -1.
      -12    1    3    3    0    0 -0.40267678320E+02 -0.23956084100E+00 -0.15220548286E+02  0.43048907033E+02  0.00000000000E+00 0.  1.
</event>
<event>
 5   0  0.8936300E+00  0.8129042E+02  0.7957747E-01  0.1324133E+00
        1   -1    0    0  501    0  0.00000000000E+00  0.00000000000E+00  0.39800217001E+02  0.39800217001E+02  0.00000000000E+00 0. -1.
       -2   -1    0    0    0  501  0.00000000000E+00  0.00000000000E+00 -0.41508141538E+02  0.41508141538E+02  0.00000000000E+00 0.  1.
      -24    2    1    2    0    0  0.00000000000E+00  0.00000000000E+00 -0.17079245373E+01  0.81308358539E+02  0.81290418637E+02 0.  0.
       11    1    3    3    0    0 -0.38689869107E+02  0.13316244274E+01 -0.13240307165E+02  0.40914360913E+02  0.00000000000E+00 0. -1.
      -12    1    3    3    0    0  0.38689869107E+02 -0.13316244274E+01  0.11532382628E+02  0.40393997626E+02  0.00000000000E+00 0.  1.
</event>
<event>
 5   0  0.8936300E+00  0.7964197E+02  0.7957747E-01  0.1328530E+00
        1   -1    0    0  501    0  0.00000000000E+00  0.00000000000E+00  0.64766528541E+02  0.64766528541E+02  0.00000000000E+00 0. -1.
       -2   -1    0    0    0  501  0.00000000000E+00  0.00000000000E+00 -0.24483493069E+02  0.24483493069E+02  0.00000000000E+00 0.  1.
      -24    2    1    2    0    0  0.00000000000E+00  0.00000000000E+00  0.40283035473E+02  0.89250021610E+02  0.79641970157E+02 0.  0.
       11    1    3    3    0    0 -0.23226304945E+02  0.18587152561E+02  0.49807126921E+02  0.58014596214E+02  0.00000000000E+00 0. -1.
      -12    1    3    3    0    0  0.23226304945E+02 -0.18587152561E+02 -0.95240914485E+01  0.31235425396E+02  0.00000000000E+00 0.  1.
</event>
<event>
 5   0  0.8936300E+00  0.8326028E+02  0.7957747E-01  0.1319030E+00
        1   -1    0    0  501    0  0.00000000000E+00  0.00000000000E+00  0.10582373285E+02  0.10582373285E+02  0.00000000000E+00 0. -1.
       -2   -1    0    0    0  501  0.00000000000E+00  0.00000000000E+00 -0.16376934586E+03  0.16376934586E+03  0.00000000000E+00 0.  1.
      -24    2    1    2    0    0  0.00000000000E+00  0.00000000000E+00 -0.15318697258E+03  0.17435171915E+03  0.83260275054E+02 0.  0.
       11    1    3    3    0    0  0.29675349633E+02  0.24347610747E+02 -0.11033547702E+03  0.11682187301E+03  0.00000000000E+00 0. -1.
      -12    1    3    3    0    0 -0.29675349633E+02 -0.24347610747E+02 -0.42851495564E+02  0.57529846141E+02  0.00000000000E+00 0.  1.
</event>
<event>
 5   0  0.8936300E+00  0.8266776E+02  0.7957747E-01  0.1320548E+00
        1   -1    0    0  501    0  0.00000000000E+00  0.00000000000E+00  0.92871854449E+02  0.92871854449E+02  0.00000000000E+00 0. -1.
       -2   -1    0    0    0  501  0.00000000000E+00  0.00000000000E+00 -0.18396203775E+02  0.18396203775E+02  0.00000000000E+00 0.  1.
      -24    2    1    2    0    0  0.00000000000E+00  0.00000000000E+00  0.74475650673E+02  0.11126805822E+03  0.82667758151E+02 0.  0.
       11    1    3    3    0    0 -0.21937262602E+02 -0.31204731375E+02  0.58668339421E+02  0.69978230909E+02  0.00000000000E+00 0. -1.
      -12    1    3    3    0    0  0.21937262602E+02  0.31204731375E+02  0.15807311252E+02  0.41289827315E+02  0.00000000000E+00 0.  1.
</event>
<event>
 5   0  0.8936300E+00  0.7159649E+02  0.7957747E-01  0.1351868E+00
        1   -1    0    0  501    0  0.00000000000E+00  0.00000000000E+00  0.96672836473E+01  0.96672836473E+01  0.00000000000E+00 0. -1.
       -2   -1    0    0    0  501  0.00000000000E+00  0.00000000000E+00 -0.13256198266E+03  0.13256198266E+03  0.00000000000E+00 0.  1.
      -24    2    1    2    0    0  0.00000000000E+00  0.00000000000E+00 -0.12289469901E+03  0.14222926631E+03  0.71596488384E+02 0.  0.
       11    1    3    3    0    0  0.89716933267E+01 -0.14988280158E+02  0.62603906648E+00  0.17479466472E+02  0.00000000000E+00 0. -1.
      -12    1    3    3    0    0 -0.89716933267E+01  0.14988280158E+02 -0.12352073808E+03  0.12474979983E+03  0.00000000000E+00 0.  1.
</event>
<event>
 5   0  0.8936300E+00  0.8482253E+02  0.7957747E-01  0.1315095E+00
        1   -1    0    0  501    0  0.00000000000E+00  0.00000000000E+00  0.65229124090E+02  0.65229124090E+02  0.00000000000E+00 0. -1.
       -2   -1    0    0    0  501  0.00000000000E+00  0.00000000000E+00 -0.27575341195E+02  0.27575341195E+02  0.00000000000E+00 0.  1.
      -24    2    1    2    0    0  0.00000000000E+00  0.00000000000E+00  0.37653782895E+02  0.92804465285E+02  0.84822528908E+02 0.  0.
       11    1    3    3    0    0 -0.28901826695E+02  0.30994322517E+02  0.20641826968E+02  0.47138610874E+02  0.00000000000E+00 0. -1.
      -12    1    3    3    0    0  0.28901826695E+02 -0.30994322517E+02  0.17011955927E+02  0.45665854410E+02  0.00000000000E+00 0.  1.
</event>
<event>
 5   0  0.8936300E+00  0.7900766E+02  0.7957747E-01  0.1330254E+00
        1   -1    0    0  501    0  0.00000000000E+00  0.00000000000E+00  0.10333978250E+02  0.10333978250E+02  0.00000000000E+00 0. -1.
       -2   -1    0    0    0  501  0.00000000000E+00  0.00000000000E+00 -0.15101178844E+03  0.15101178844E+03  0.00000000000E+00 0.  1.
      -24    2    1    2    0    0  0.00000000000E+00  0.00000000000E+00 -0.14067781019E+03  0.16134576669E+03  0.79007658797E+02 0.  0.
       11    1    3    3    0    0  0.16866076207E+02  0.18427622646E+02 -0.78439785175E+01  0.26183387901E+02  0.00000000000E+00 0. -1.
      -12    1    3    3    0    0 -0.16866076207E+02 -0.18427622646E+02 -0.13283383167E+03  0.13516237878E+03  0.00000000000E+00 0.  1.
</event>
<event>
 5   0  0.8936300E+00  0.8055140E+02  0.7957747E-01  0.1326089E+00
        1   -1    0    0  501    0  0.00000000000E+00  0.00000000000E+00  0.11277986790E+03  0.11277986790E+03  0.00000000000E+00 0. -1.
       -2   -1    0    0    0  501  0.00000000000E+00  0.00000000000E+00 -0.14383169041E+02  0.14383169041E+02  0.00000000000E+00 0.  1.
      -24    2    1    2    0    0  0.00000000000E+00  0.00000000000E+00  0.98396698860E+02  0.12716303694E+03  0.80551397366E+02 0.  0.
       11    1    3    3    0    0  0.13698504939E+02  0.25261238918E+02  0.93747613511E+02  0.98053017639E+02  0.00000000000E+00 0. -1.
      -12    1    3    3    0    0 -0.13698504939E+02 -0.25261238918E+02  0.46490853493E+01  0.29110019302E+02  0.00000000000E+00 0.  1.
</event>
<event>
 5   0  0.8936300E+00  0.8438219E+02  0.7957747E-01  0.1316194E+00
        1   -1    0    0  501    0  0.00000000000E+00  0.00000000000E+00  0.92938405321E+02  0.92938405321E+02  0.00000000000E+00 0. -1.
       -2   -1    0    0    0  501  0.00000000000E+00  0.00000000000E+00 -0.19153424004E+02  0.19153424004E+02  0.00000000000E+00 0.  1.
      -24    2    1    2    0    0  0.00000000000E+00  0.00000000000E+00  0.73784981316E+02  0.11209182932E+03  0.84382194410E+02 0.  0.
       11    1    3    3    0    0 -0.15822853323E+02  0.38975305567E+02  0.32557086520E+02  0.53192114209E+02  0.00000000000E+00 0. -1.
      -12    1    3    3    0    0  0.15822853323E+02 -0.38975305567E+02  0.41227894796E+02  0.58899715115E+02  0.00000000000E+00 0.  1.
</event>
<event>
 5   0  0.8936300E+00  0.7854811E+02  0.7957747E-01  0.1331515E+00
       -2   -1    0    0    0  501  0.00000000000E+00  0.00000000000E+00  0.12476793811E+03  0.12476793811E+03  0.00000000000E+00 0.  1.
        1   -1    0    0  501    0  0.00000000000E+00  0.00000000000E+00 -0.12362561242E+02  0.12362561242E+02  0.00000000000E+00 0. -1.
      -24    2    1    2    0    0  0.00000000000E+00  0.00000000000E+00  0.11240537687E+03  0.13713049935E+03  0.78548106940E+02 0.  0.
       11    1    3    3    0    0  0.11732328220E+02 -0.32346035461E+02  0.23145510658E+02  0.41468400007E+02  0.00000000000E+00 0. -1.
      -12    1    3    3    0    0 -0.11732328220E+02  0.32346035461E+02  0.89259866207E+02  0.95662099344E+02  0.00000000000E+00 0.  1.
</event>
<event>
 5   0  0.8936300E+00  0.8295971E+02  0.7957747E-01  0.1319798E+00
       -2   -1    0    0    0  501  0.00000000000E+00  0.00000000000E+00  0.44508648523E+02  0.44508648523E+02  0.00000000000E+00 0.  1.
        1   -1    0    0  501    0  0.00000000000E+00  0.00000000000E+00 -0.38657170394E+02  0.38657170394E+02  0.00000000000E+00 0. -1.
      -24    2    1    2    0    0  0.00000000000E+00  0.00000000000E+00  0.58514781282E+01  0.83165818917E+02  0.82959710944E+02 0.  0.
       11    1    3    3    0    0 -0.26408019439E+01 -0.15135104086E+02 -0.35699625837E+02  0.38865260780E+02  0.00000000000E+00 0. -1.
      -12    1    3    3    0    0  0.26408019439E+01  0.15135104086E+02  0.41551103965E+02  0.44300558137E+02  0.00000000000E+00 0.  1.
</event>
<event>
 5   0  0.8936300E+00  0.8002986E+02  0.7957747E-01  0.1327485E+00
        1   -1    0    0  501    0  0.00000000000E+00  0.00000000000E+00  0.21812775686E+02  0.21812775686E+02  0.00000000000E+00 0. -1.
       -2   -1    0    0    0  501  0.00000000000E+00  0.00000000000E+00 -0.73406271339E+02  0.73406271339E+02  0.00000000000E+00 0.  1.
      -24    2    1    2    0    0  0.00000000000E+00  0.00000000000E+00 -0.51593495653E+02  0.95219047026E+02  0.80029857696E+02 0.  0.
       11    1    3    3    0    0 -0.37352806944E+02 -0.12597639147E+02 -0.33976253580E+02  0.52041507530E+02  0.00000000000E+00 0. -1.
      -12    1    3    3    0    0  0.37352806944E+02  0.12597639147E+02 -0.17617242073E+02  0.43177539496E+02  0.00000000000E+00 0.  1.
</event>
<event>
 5   0  0.8936300E+00  0.6879775E+02  0.7957747E-01  0.1360819E+00
        1   -1    0    0  501    0  0.00000000000E+00  0.00000000000E+00  0.12791603087E+03  0.12791603087E+03  0.00000000000E+00 0. -1.
       -2   -1    0    0    0  501  0.00000000000E+00  0.00000000000E+00 -0.92504629283E+01  0.92504629283E+01  0.00000000000E+00 0.  1.
      -24    2    1    2    0    0  0.00000000000E+00  0.00000000000E+00  0.11866556794E+03  0.13716649380E+03  0.68797747100E+02 0.  0.
       11    1    3    3    0    0 -0.51749461056E+00  0.32977684803E+02  0.78815341106E+02  0.85438009628E+02  0.00000000000E+00 0. -1.
      -12    1    3    3    0    0  0.51749461056E+00 -0.32977684803E+02  0.39850226836E+02  0.51728484170E+02  0.00000000000E+00 0.  1.
</event>
<event>
 5   0  0.8936300E+00  0.8178399E+02  0.7957747E-01  0.1322839E+00
        1   -1    0    0  501    0  0.00000000000E+00  0.00000000000E+00  0.14196982860E+02  0.14196982860E+02  0.00000000000E+00 0. -1.
       -2   -1    0    0    0  501  0.00000000000E+00  0.00000000000E+00 -0.11778245098E+03  0.11778245098E+03  0.00000000000E+00 0.  1.
      -24    2    1    2    0    0  0.00000000000E+00  0.00000000000E+00 -0.10358546812E+03  0.13197943384E+03  0.81783994468E+02 0.  0.
       11    1    3    3    0    0  0.19336356590E+02  0.23348816718E+01  0.62309285692E+01  0.20449225644E+02  0.00000000000E+00 0. -1.
      -12    1    3    3    0    0 -0.19336356590E+02 -0.23348816718E+01 -0.10981639669E+03  0.11153020819E+03  0.00000000000E+00 0.  1.
</event>
<event>
 5   0  0.8936300E+00  0.8159142E+02  0.7957747E-01  0.1323342E+00
        1   -1    0    0  501    0  0.00000000000E+00  0.00000000000E+00  0.63164307971E+01  0.63164307971E+01  0.00000000000E+00 0. -1.
       -2   -1    0    0    0  501  0.00000000000E+00  0.00000000000E+00 -0.26348585032E+03  0.26348585032E+03  0.00000000000E+00 0.  1.
      -24    2    1    2    0    0  0.00000000000E+00  0.00000000000E+00 -0.25716941952E+03  0.26980228112E+03  0.81591424538E+02 0.  0.
       11    1    3    3    0    0 -0.81808464199E+01 -0.39232620504E+02 -0.10336538899E+03  0.11086265557E+03  0.00000000000E+00 0. -1.
      -12    1    3    3    0    0  0.81808464199E+01  0.39232620504E+02 -0.15380403053E+03  0.15893962554E+03  0.00000000000E+00 0.  1.
</event>
<event>
 5   0  0.8936300E+00  0.8110415E+02  0.7957747E-01  0.1324624E+00
        1   -1    0    0  501    0  0.00000000000E+00  0.00000000000E+00  0.50424489325E+02  0.50424489325E+02  0.00000000000E+00 0. -1.
       -2   -1    0    0    0  501  0.00000000000E+00  0.00000000000E+00 -0.32612544217E+02  0.32612544217E+02  0.00000000000E+00 0.  1.
      -24    2    1    2    0    0  0.00000000000E+00  0.00000000000E+00  0.17811945107E+02  0.83037033542E+02  0.81104152489E+02 0.  0.
       11    1    3    3    0    0  0.21699445053E+02  0.27134447647E+02  0.30316715791E+02  0.46111250483E+02  0.00000000000E+00 0. -1.
      -12    1    3    3    0    0 -0.21699445053E+02 -0.27134447647E+02 -0.12504770683E+02  0.36925783060E+02  0.00000000000E+00 0.  1.
</event>
<event>
 5   0  0.8936300E+00  0.8246615E+02  0.7957747E-01  0.1321068E+00
        1   -1    0    0  501    0  0.00000000000E+00  0.00000000000E+00  0.19006639757E+03  0.19006639757E+03  0.00000000000E+00 0. -1.
       -2   -1    0    0    0  501  0.00000000000E+00  0.00000000000E+00 -0.89451175882E+01  0.89451175882E+01  0.00000000000E+00 0.  1.
      -24    2    1    2    0    0  0.00000000000E+00  0.00000000000E+00  0.18112127998E+03  0.19901151515E+03  0.82466145194E+02 0.  0.
       11    1    3    3    0    0  0.14959006846E+02  0.36396640465E+02  0.12028176009E+03  0.12655508340E+03  0.00000000000E+00 0. -1.
      -12    1    3    3    0    0 -0.14959006846E+02 -0.36396640465E+02  0.60839519884E+02  0.72456431755E+02  0.00000000000E+00 0.  1.
</event>
<event>
 5   0  0.8936300E+00  0.8257023E+02  0.7957747E-01  0.1320799E+00
        1   -1    0    0  501    0  0.00000000000E+00  0.00000000000E+00  0.55143410638E+01  0.55143410638E+01  0.00000000000E+00 0. -1.
       -2   -1    0    0    0  501  0.00000000000E+00  0.00000000000E+00 -0.30909602244E+03  0.30909602244E+03  0.00000000000E+00 0.  1.
      -24    2    1    2    0    0  0.00000000000E+00  0.00000000000E+00 -0.30358168138E+03  0.31461036351E+03  0.82570234085E+02 0.  0.
       11    1    3    3    0    0 -0.31243202437E+02 -0.53306928704E+01 -0.50988724974E+02  0.60036689278E+02  0.00000000000E+00 0. -1.
      -12    1    3    3    0    0  0.31243202437E+02  0.53306928704E+01 -0.25259295641E+03  0.25457367423E+03  0.00000000000E+00 0.  1.
</event>
<event>
 5   0  0.8936300E+00  0.7985681E+02  0.7957747E-01  0.1327950E+00
        1   -1    0    0  501    0  0.00000000000E+00  0.00000000000E+00  0.75394630188E+01  0.75394630188E+01  0.00000000000E+00 0. -1.
       -2   -1    0    0    0  501  0.00000000000E+00  0.00000000000E+00 -0.21145771333E+03  0.21145771333E+03  0.00000000000E+00 0.  1.
      -24    2    1    2    0    0  0.00000000000E+00  0.00000000000E+00 -0.20391825031E+03  0.21899717634E+03  0.79856812099E+02 0.  0.
       11    1    3    3    0    0  0.89211418909E+01 -0.38919023734E+02 -0.10201590139E+03  0.10955145512E+03  0.00000000000E+00 0. -1.
      -12    1    3    3    0    0 -0.89211418909E+01  0.38919023734E+02 -0.10190234891E+03  0.10944572123E+03  0.00000000000E+00 0.  1.
</event>
<event>
 5   0  0.8936300E+00  0.8283345E+02  0.7957747E-01  0.1320122E+00
        1   -1    0    0  501    0  0.00000000000E+00  0.00000000000E+00  0.53853565463E+02  0.53853565463E+02  0.00000000000E+00 0. -1.
       -2   -1    0    0    0  501  0.00000000000E+00  0.00000000000E+00 -0.31852026997E+02  0.31852026997E+02  0.00000000000E+00 0.  1.
      -24    2    1    2    0    0  0.00000000000E+00  0.00000000000E+00  0.22001538466E+02  0.85705592461E+02  0.82833452688E+02 0.  0.
       11    1    3    3    0    0 -0.31364463024E+02 -0.60473731909E+01  0.38278600953E+02  0.49855306179E+02  0.00000000000E+00 0. -1.
      -12    1    3    3    0    0  0.31364463024E+02  0.60473731909E+01 -0.16277062487E+02  0.35850286282E+02  0.00000000000E+00 0.  1.
</event>
<event>
 5   0  0.8936300E+00  0.7951391E+02  0.7957747E-01  0.1328877E+00
       -4   -1    0    0    0  501  0.00000000000E+00  0.00000000000E+00  0.40252141482E+02  0.40252141482E+02  0.00000000000E+00 0.  1.
        3   -1    0    0  501    0  0.00000000000E+00  0.00000000000E+00 -0.39267863912E+02  0.39267863912E+02  0.00000000000E+00 0. -1.
      -24    2    1    2    0    0  0.00000000000E+00  0.00000000000E+00  0.98427757050E+00  0.79520005394E+02  0.79513913597E+02 0.  0.
       11    1    3    3    0    0  0.21533569900E+02 -0.10936340284E+02 -0.31090613837E+02  0.39369079748E+02  0.00000000000E+00 0. -1.
      -12    1    3    3    0    0 -0.21533569900E+02  0.10936340284E+02  0.32074891407E+02  0.40150925646E+02  0.00000000000E+00 0.  1.
</event>
<event>
 5   0  0.8936300E+00  0.7603196E+02  0.7957747E-01  0.1338596E+00
        1   -1    0    0  501    0  0.00000000000E+00  0.00000000000E+00  0.43044107461E+01  0.43044107461E+01  0.00000000000E+00 0. -1.
       -2   -1    0    0    0  501  0.00000000000E+00  0.00000000000E+00 -0.33575202385E+03  0.33575202385E+03  0.00000000000E+00 0.  1.
      -24    2    1    2    0    0  0.00000000000E+00  0.00000000000E+00 -0.33144761310E+03  0.34005643459E+03  0.76031956951E+02 0.  0.
       11    1    3    3    0    0 -0.49602766688E+01  0.31244132765E+02 -0.71437437727E+02  0.78128789098E+02  0.00000000000E+00 0. -1.
      -12    1    3    3    0    0  0.49602766688E+01 -0.31244132765E+02 -0.26001017537E+03  0.26192764549E+03  0.00000000000E+00 0.  1.
</event>
<event>
 5   0  0.8936300E+00  0.8484395E+02  0.7957747E-01  0.1315042E+00
        1   -1    0    0  501    0  0.00000000000E+00  0.00000000000E+00  0.13102242161E+02  0.13102242161E+02  0.00000000000E+00 0. -1.
       -2   -1    0    0    0  501  0.00000000000E+00  0.00000000000E+00 -0.13735237934E+03  0.13735237934E+03  0.00000000000E+00 0.  1.
      -24    2    1    2    0    0  0.00000000000E+00  0.00000000000E+00 -0.12425013718E+03  0.15045462150E+03  0.84843954069E+02 0.  0.
       11    1    3    3    0    0  0.10877405826E+02 -0.23199485372E+02 -0.21701447345E+01  0.25714657439E+02  0.00000000000E+00 0. -1.
      -12    1    3    3    0    0 -0.10877405826E+02  0.23199485372E+02 -0.12207999245E+03  0.12473996406E+03  0.00000000000E+00 0.  1.
</event>
<event>
 5   0  0.8936300E+00  0.7947056E+02  0.7957747E-01  0.1328994E+00
        1   -1    0    0  501    0  0.00000000000E+00  0.00000000000E+00  0.20769518409E+02  0.20769518409E+02  0.00000000000E+00 0. -1.
       -2   -1    0    0    0  501  0.00000000000E+00  0.00000000000E+00 -0.76019703878E+02  0.76019703878E+02  0.00000000000E+00 0.  1.
      -24    2    1    2    0    0  0.00000000000E+00  0.00000000000E+00 -0.55250185469E+02  0.96789222287E+02  0.79470564089E+02 0.  0.
       11    1    3    3    0    0 -0.19116133958E+02  0.20805035349E+02 -0.61653340496E+02  0.67818953602E+02  0.00000000000E+00 0. -1.
      -12    1    3    3    0    0  0.19116133958E+02 -0.20805035349E+02  0.64031550270E+01  0.28970268685E+02  0.00000000000E+00 0.  1.
</event>
<event>
 5   0  0.8936300E+00  0.7916495E+02  0.7957747E-01  0.1329825E+00
        1   -1    0    0  501    0  0.00000000000E+00  0.00000000000E+00  0.81689669034E+02  0.81689669034E+02  0.00000000000E+00 0. -1.
       -2   -1    0    0    0  501  0.00000000000E+00  0.00000000000E+00 -0.19179562846E+02  0.19179562846E+02  0.00000000000E+00 0.  1.
      -24    2    1    2    0    0  0.00000000000E+00  0.00000000000E+00  0.62510106188E+02  0.10086923188E+03  0.79164945300E+02 0.  0.
       11    1    3    3    0    0  0.34496866626E+01 -0.39360567126E+02  0.34275002040E+02  0.52306121510E+02  0.00000000000E+00 0. -1.
      -12    1    3    3    0    0 -0.34496866626E+01  0.39360567126E+02  0.28235104148E+02  0.48563110370E+02  0.00000000000E+00 0.  1.
</event>
<event>
 5   0  0.8936300E+00  0.8058233E+02  0.7957747E-01  0.1326007E+00
        1   -1    0    0  501    0  0.00000000000E+00  0.00000000000E+00  0.29186580399E+03  0.29186580399E+03  0.00000000000E+00 0. -1.
       -2   -1    0    0    0  501  0.00000000000E+00  0.00000000000E+00 -0.55620700458E+01  0.55620700458E+01  0.00000000000E+00 0.  1.
      -24    2    1    2    0    0  0.00000000000E+00  0.00000000000E+00  0.28630373394E+03  0.29742787403E+03  0.80582331705E+02 0.  0.
       11    1    3    3    0    0  0.31606521853E+02 -0.17545726838E+02  0.20882160050E+03  0.21192754797E+03  0.00000000000E+00 0. -1.
      -12    1    3    3    0    0 -0.31606521853E+02  0.17545726838E+02  0.77482133439E+02  0.85500326059E+02  0.00000000000E+00 0.  1.
</event>
<event>
 5   0  0.8936300E+00  0.8464017E+02  0.7957747E-01  0.1315550E+00
        1   -1    0    0  501    0  0.00000000000E+00  0.00000000000E+00  0.26934908022E+02  0.26934908022E+02  0.00000000000E+00 0. -1.
       -2   -1    0    0    0  501  0.00000000000E+00  0.00000000000E+00 -0.66493248232E+02  0.66493248232E+02  0.00000000000E+00 0.  1.
      -24    2    1    2    0    0  0.00000000000E+00  0.00000000000E+00 -0.39558340210E+02  0.93428156254E+02  0.84640168365E+02 0.  0.
       11    1    3    3    0    0 -0.28800411665E+02  0.29312052618E+02 -0.30945268249E+02  0.51441906727E+02  0.00000000000E+00 0. -1.
      -12    1    3    3    0    0  0.28800411665E+02 -0.29312052618E+02 -0.86130719614E+01  0.41986249527E+02  0.00000000000E+00 0.  1.
</event>
<event>
 5   0  0.8936300E+00  0.8126910E+02  0.7957747E-01  0.1324189E+00
        1   -1    0    0  501    0  0.00000000000E+00  0.00000000000E+00  0.46295502944E+03  0.46295502944E+03  0.00000000000E+00 0. -1.
       -2   -1    0    0    0  501  0.00000000000E+00  0.00000000000E+00 -0.35665814537E+01  0.35665814537E+01  0.00000000000E+00 0.  1.
      -24    2    1    2    0    0  0.00000000000E+00  0.00000000000E+00  0.45938844799E+03  0.46652161090E+03  0.81269104139E+02 0.  0.
       11    1    3    3    0    0 -0.50729684616E+01 -0.36640600488E+02  0.13314219761E+03  0.13818506937E+03  0.00000000000E+00 0. -1.
      -12    1    3    3    0    0  0.50729684616E+01  0.36640600488E+02  0.32624625038E+03  0.32833654153E+03  0.00000000000E+00 0.  1.
</event>
<event>
 5   0  0.8936300E+00  0.8044838E+02  0.7957747E-01  0.1326364E+00
        1   -1    0    0  501    0  0.00000000000E+00  0.00000000000E+00  0.64300175152E+01  0.64300175152E+01  0.00000000000E+00 0. -1.
       -2   -1    0    0    0  501  0.00000000000E+00  0.00000000000E+00 -0.25163005034E+03  0.25163005034E+03  0.00000000000E+00 0.  1.
      -24    2    1    2    0    0  0.00000000000E+00  0.00000000000E+00 -0.24520003283E+03  0.25806006786E+03  0.80448384224E+02 0.  0.
       11    1    3    3    0    0  0.10953527213E+02 -0.35516285401E+02 -0.73258754857E+02  0.82147619870E+02  0.00000000000E+00 0. -1.
      -12    1    3    3    0    0 -0.10953527213E+02  0.35516285401E+02 -0.17194127797E+03  0.17591244799E+03  0.00000000000E+00 0.  1.
</event>
<event>
 5   0  0.8936300E+00  0.8135010E+02  0.7957747E-01  0.1323976E+00
        1   -1    0    0  501    0  0.00000000000E+00  0.00000000000E+00  0.26103590875E+01  0.26103590875E+01  0.00000000000E+00 0. -1.
       -2   -1    0    0    0  501  0.00000000000E+00  0.00000000000E+00 -0.63380538271E+03  0.63380538271E+03  0.00000000000E+00 0.  1.
      -24    2    1    2    0    0  0.00000000000E+00  0.00000000000E+00 -0.63119502362E+03  0.63641574180E+03  0.81350098720E+02 0.  0.
       11    1    3    3    0    0  0.15288765835E+02 -0.11397024834E+02 -0.34526628949E+02  0.39442700749E+02  0.00000000000E+00 0. -1.
      -12    1    3    3    0    0 -0.15288765835E+02  0.11397024834E+02 -0.59666839467E+03  0.59697304105E+03  0.00000000000E+00 0.  1.
</event>
<event>
 5   0  0.8936300E+00  0.8084434E+02  0.7957747E-01  0.1325311E+00
        1   -1    0    0  501    0  0.00000000000E+00  0.00000000000E+00  0.60038478757E+02  0.60038478757E+02  0.00000000000E+00 0. -1.
       -2   -1    0    0    0  501  0.00000000000E+00  0.00000000000E+00 -0.27215077616E+02  0.27215077616E+02  0.00000000000E+00 0.  1.
      -24    2    1    2    0    0  0.00000000000E+00  0.00000000000E+00  0.32823401141E+02  0.87253556372E+02  0.80844340786E+02 0.  0.
       11    1    3    3    0    0 -0.30470347719E+02 -0.22116829145E+02  0.32286842675E+02  0.49598754334E+02  0.00000000000E+00 0. -1.
      -12    1    3    3    0    0  0.30470347719E+02  0.22116829145E+02  0.53655846630E+00  0.37654802039E+02  0.00000000000E+00 0.  1.
</event>
<event>
 5   0  0.8936300E+00  0.8034923E+02  0.7957747E-01  0.1326629E+00
        1   -1    0    0  501    0  0.00000000000E+00  0.00000000000E+00  0.56776176294E+02  0.56776176294E+02  0.00000000000E+00 0. -1.
       -2   -1    0    0    0  501  0.00000000000E+00  0.00000000000E+00 -0.28427409381E+02  0.28427409381E+02  0.00000000000E+00 0.  1.
      -24    2    1    2    0    0  0.00000000000E+00  0.00000000000E+00  0.28348766914E+02  0.85203585675E+02  0.80349227914E+02 0.  0.
       11    1    3    3    0    0 -0.28264755426E+02  0.26573384227E+01  0.44317841077E+02  0.52631063875E+02  0.00000000000E+00 0. -1.
      -12    1    3    3    0    0  0.28264755426E+02 -0.26573384227E+01 -0.15969074164E+02  0.32572521801E+02  0.00000000000E+00 0.  1.
</event>
<event>
 5   0  0.8936300E+00  0.8308573E+02  0.7957747E-01  0.1319476E+00
        1   -1    0    0  501    0  0.00000000000E+00  0.00000000000E+00  0.30048825019E+02  0.30048825019E+02  0.00000000000E+00 0. -1.
       -2   -1    0    0    0  501  0.00000000000E+00  0.00000000000E+00 -0.57433513227E+02  0.57433513227E+02  0.00000000000E+00 0.  1.
      -24    2    1    2    0    0  0.00000000000E+00  0.00000000000E+00 -0.27384688208E+02  0.87482338246E+02  0.83085728960E+02 0.  0.
       11    1    3    3    0    0 -0.34716850503E+02  0.14893138702E+02  0.45064981986E+01  0.38044366406E+02  0.00000000000E+00 0. -1.
      -12    1    3    3    0    0  0.34716850503E+02 -0.14893138702E+02 -0.31891186406E+02  0.49437971840E+02  0.00000000000E+00 0.  1.
</event>
<event>
 5   0  0.8936300E+00  0.7432738E+02  0.7957747E-01  0.1343572E+00
        1   -1    0    0  501    0  0.00000000000E+00  0.00000000000E+00  0.69107857879E+02  0.69107857879E+02  0.00000000000E+00 0. -1.
       -2   -1    0    0    0  501  0.00000000000E+00  0.00000000000E+00 -0.19985280687E+02  0.19985280687E+02  0.00000000000E+00 0.  1.
      -24    2    1    2    0    0  0.00000000000E+00  0.00000000000E+00  0.49122577192E+02  0.89093138566E+02  0.74327382232E+02 0.  0.
       11    1    3    3    0    0  0.23391343297E+01 -0.31785096826E+02  0.47473416980E+02  0.57179447788E+02  0.00000000000E+00 0. -1.
      -12    1    3    3    0    0 -0.23391343297E+01  0.31785096826E+02  0.16491602125E+01  0.31913690778E+02  0.00000000000E+00 0.  1.
</event>
<event>
 5   0  0.8936300E+00  0.8581947E+02  0.7957747E-01  0.1312634E+00
       -4   -1    0    0    0  501  0.00000000000E+00  0.00000000000E+00  0.16126431844E+02  0.16126431844E+02  0.00000000000E+00 0.  1.
        3   -1    0    0  501    0  0.00000000000E+00  0.00000000000E+00 -0.11417560918E+03  0.11417560918E+03  0.00000000000E+00 0. -1.
      -24    2    1    2    0    0  0.00000000000E+00  0.00000000000E+00 -0.98049177337E+02  0.13030204103E+03  0.85819465851E+02 0.  0.
       11    1    3    3    0    0 -0.32686098724E+02  0.19147385351E+02 -0.79627144301E+02  0.88178713560E+02  0.00000000000E+00 0. -1.
      -12    1    3    3    0    0  0.32686098724E+02 -0.19147385351E+02 -0.18422033035E+02  0.42123327465E+02  0.00000000000E+00 0.  1.
</event>
<event>
 5   0  0.8936300E+00  0.8056705E+02  0.7957747E-01  0.1326048E+00
        1   -1    0    0  501    0  0.00000000000E+00  0.00000000000E+00  0.60582888420E+02  0.60582888420E+02  0.00000000000E+00 0. -1.
       -2   -1    0    0    0  501  0.00000000000E+00  0.00000000000E+00 -0.26785817581E+02  0.26785817581E+02  0.00000000000E+00 0.  1.
      -24    2    1    2    0    0  0.00000000000E+00  0.00000000000E+00  0.33797070839E+02  0.87368706001E+02  0.80567045316E+02 0.  0.
       11    1    3    3    0    0  0.28914228500E+02 -0.27783168631E+02  0.12723139094E+02  0.42069173243E+02  0.00000000000E+00 0. -1.
      -12    1    3    3    0    0 -0.28914228500E+02  0.27783168631E+02  0.21073931745E+02  0.45299532758E+02  0.00000000000E+00 0.  1.
</event>
<event>
 5   0  0.8936300E+00  0.7062151E+02  0.7957747E-01  0.1354932E+00
        1   -1    0    0  501    0  0.00000000000E+00  0.00000000000E+00  0.77658836735E+01  0.77658836735E+01  0.00000000000E+00 0. -1.
       -2   -1    0    0    0  501  0.00000000000E+00  0.00000000000E+00 -0.16055473022E+03  0.16055473022E+03  0.00000000000E+00 0.  1.
      -24    2    1    2    0    0  0.00000000000E+00  0.00000000000E+00 -0.15278884654E+03  0.16832061389E+03  0.70621508284E+02 0.  0.
       11    1    3    3    0    0  0.32872795758E+02 -0.94025929100E+01 -0.97419890830E+02  0.10324565165E+03  0.00000000000E+00 0. -1.
      -12    1    3    3    0    0 -0.32872795758E+02  0.94025929100E+01 -0.55368955713E+02  0.65074962245E+02  0.00000000000E+00 0.  1.
</event>
<event>
 5   0  0.8936300E+00  0.8276460E+02  0.7957747E-01  0.1320299E+00
        1   -1    0    0  501    0  0.00000000000E+00  0.00000000000E+00  0.51684209572E+01  0.51684209572E+01  0.00000000000E+00 0. -1.
       -2   -1    0    0    0  501  0.00000000000E+00  0.00000000000E+00 -0.33133813332E+03  0.33133813332E+03  0.00000000000E+00 0.  1.
      -24    2    1    2    0    0  0.00000000000E+00  0.00000000000E+00 -0.32616971236E+03  0.33650655428E+03  0.82764604806E+02 0.  0.
       11    1    3    3    0    0 -0.18424206994E+02  0.85269350997E+01 -0.16470500628E+02  0.26142635989E+02  0.00000000000E+00 0. -1.
      -12    1    3    3    0    0  0.18424206994E+02 -0.85269350997E+01 -0.30969921174E+03  0.31036391829E+03  0.00000000000E+00 0.  1.
</event>
<event>
 5   0  0.8936300E+00  0.7631529E+02  0.7957747E-01  0.1337783E+00
        1   -1    0    0  501    0  0.00000000000E+00  0.00000000000E+00  0.18919618550E+02  0.18919618550E+02  0.00000000000E+00 0. -1.
       -2   -1    0    0    0  501  0.00000000000E+00  0.00000000000E+00 -0.76957456553E+02  0.76957456553E+02  0.00000000000E+00 0.  1.
      -24    2    1    2    0    0  0.00000000000E+00  0.00000000000E+00 -0.58037838004E+02  0.95877075103E+02  0.76315286084E+02 0.  0.
       11    1    3    3    0    0 -0.26659781151E+02  0.14929229027E+02 -0.30473532869E+00  0.30556810599E+02  0.00000000000E+00 0. -1.
      -12    1    3    3    0    0  0.26659781151E+02 -0.14929229027E+02 -0.57733102675E+02  0.65320264504E+02  0.00000000000E+00 0.  1.
</event>
<event>
 5   0  0.8936300E+00  0.8186540E+02  0.7957747E-01  0.1322626E+00
       -2   -1    0    0    0  501  0.00000000000E+00  0.00000000000E+00  0.10511747919E+02  0.10511747919E+02  0.00000000000E+00 0.  1.
        1   -1    0    0  501    0  0.00000000000E+00  0.00000000000E+00 -0.15939174561E+03  0.15939174561E+03  0.00000000000E+00 0. -1.
      -24    2    1    2    0    0  0.00000000000E+00  0.00000000000E+00 -0.14887999769E+03  0.16990349353E+03  0.81865398069E+02 0.  0.
       11    1    3    3    0    0 -0.37049493296E+02 -0.62027240882E+01 -0.10818342796E+03  0.11451983594E+03  0.00000000000E+00 0. -1.
      -12    1    3    3    0    0  0.37049493296E+02  0.62027240882E+01 -0.40696569733E+02  0.55383657587E+02  0.00000000000E+00 0.  1.
</event>
<event>
 5   0  0.8936300E+00  0.6464041E+02  0.7957747E-01  0.1375050E+00
        1   -1    0    0  501    0  0.00000000000E+00  0.00000000000E+00  0.30218257802E+01  0.30218257802E+01  0.00000000000E+00 0. -1.
       -2   -1    0    0    0  501  0.00000000000E+00  0.00000000000E+00 -0.34568363530E+03  0.34568363530E+03  0.00000000000E+00 0.  1.
      -24    2    1    2    0    0  0.00000000000E+00  0.00000000000E+00 -0.34266180952E+03  0.34870546108E+03  0.64640412157E+02 0.  0.
       11    1    3    3    0    0 -0.10413660709E+02  0.60989298584E+01 -0.95886569574E+01  0.15413747663E+02  0.00000000000E+00 0. -1.
      -12    1    3    3    0    0  0.10413660709E+02 -0.60989298584E+01 -0.33307315256E+03  0.33329171342E+03  0.00000000000E+00 0.  1.
</event>
<event>
 5   0  0.8936300E+00  0.8084032E+02  0.7957747E-01  0.1325321E+00
        1   -1    0    0  501    0  0.00000000000E+00  0.00000000000E+00  0.18548909621E+02  0.18548909621E+02  0.00000000000E+00 0. -1.
       -2   -1    0    0    0  501  0.00000000000E+00  0.00000000000E+00 -0.88080077374E+02  0.88080077374E+02  0.00000000000E+00 0.  1.
      -24    2    1    2    0    0  0.00000000000E+00  0.00000000000E+00 -0.69531167753E+02  0.10662898699E+03  0.80840321489E+02 0.  0.
       11    1    3    3    0    0  0.26792989169E+02  0.29461166638E+02 -0.25630584785E+02  0.47357697207E+02  0.00000000000E+00 0. -1.
      -12    1    3    3    0    0 -0.26792989169E+02 -0.29461166638E+02 -0.43900582968E+02  0.59271289788E+02  0.00000000000E+00 0.  1.
</event>
<event>
 5   0  0.8936300E+00  0.8030142E+02  0.7957747E-01  0.1326757E+00
        1   -1    0    0  501    0  0.00000000000E+00  0.00000000000E+00  0.58791261202E+01  0.58791261202E+01  0.00000000000E+00 0. -1.
       -2   -1    0    0    0  501  0.00000000000E+00  0.00000000000E+00 -0.27420394221E+03  0.27420394221E+03  0.00000000000E+00 0.  1.
      -24    2    1    2    0    0  0.00000000000E+00  0.00000000000E+00 -0.26832481609E+03  0.28008306833E+03  0.80301421131E+02 0.  0.
       11    1    3    3    0    0  0.11143754887E+02 -0.31790269332E+02 -0.57963631997E+02  0.67041682045E+02  0.00000000000E+00 0. -1.
      -12    1    3    3    0    0 -0.11143754887E+02  0.31790269332E+02 -0.21036118410E+03  0.21304138629E+03  0.00000000000E+00 0.  1.
</event>
<event>
 5   0  0.8936300E+00  0.7987737E+02  0.7957747E-01  0.1327895E+00
        1   -1    0    0  501    0  0.00000000000E+00  0.00000000000E+00  0.10299878363E+02  0.10299878363E+02  0.00000000000E+00 0. -1.
       -2   -1    0    0    0  501  0.00000000000E+00  0.00000000000E+00 -0.15486576047E+03  0.15486576047E+03  0.00000000000E+00 0.  1.
      -24    2    1    2    0    0  0.00000000000E+00  0.00000000000E+00 -0.14456588211E+03  0.16516563883E+03  0.79877368396E+02 0.  0.
       11    1    3    3    0    0 -0.15500733529E+02  0.34987054551E+02 -0.48640815318E+02  0.61889382295E+02  0.00000000000E+00 0. -1.
      -12    1    3    3    0    0  0.15500733529E+02 -0.34987054551E+02 -0.95925066788E+02  0.10327625654E+03  0.00000000000E+00 0.  1.
</event>
<event>
 5   0  0.8936300E+00  0.7506648E+02  0.7957747E-01  0.1341396E+00
        1   -1    0    0  501    0  0.00000000000E+00  0.00000000000E+00  0.86219409155E+02  0.86219409155E+02  0.00000000000E+00 0. -1.
       -2   -1    0    0    0  501  0.00000000000E+00  0.00000000000E+00 -0.16339060445E+02  0.16339060445E+02  0.00000000000E+00 0.  1.
      -24    2    1    2    0    0  0.00000000000E+00  0.00000000000E+00  0.69880348710E+02  0.10255846960E+03  0.75066480875E+02 0.  0.
       11    1    3    3    0    0 -0.67246143610E+01  0.16566852579E+02  0.80027242516E+02  0.82000247484E+02  0.00000000000E+00 0. -1.
      -12    1    3    3    0    0  0.67246143610E+01 -0.16566852579E+02 -0.10146893806E+02  0.20558222117E+02  0.00000000000E+00 0.  1.
</event>
<event>
 5   0  0.8936300E+00  0.8333523E+02  0.7957747E-01  0.1318839E+00
        1   -1    0    0  501    0  0.00000000000E+00  0.00000000000E+00  0.28837802566E+02  0.28837802566E+02  0.00000000000E+00 0. -1.
       -2   -1    0    0    0  501  0.00000000000E+00  0.00000000000E+00 -0.60205352743E+02  0.60205352743E+02  0.00000000000E+00 0.  1.
      -24    2    1    2    0    0  0.00000000000E+00  0.00000000000E+00 -0.31367550177E+02  0.89043155310E+02  0.83335228465E+02 0.  0.
       11    1    3    3    0    0 -0.44772888165E+01 -0.34251728384E+02  0.92138001813E+01  0.35750819938E+02  0.00000000000E+00 0. -1.
      -12    1    3    3    0    0  0.44772888165E+01  0.34251728384E+02 -0.40581350358E+02  0.53292335372E+02  0.00000000000E+00 0.  1.
</event>
<event>
 5   0  0.8936300E+00  0.7959967E+02  0.7957747E-01  0.1328645E+00
        1   -1    0    0  501    0  0.00000000000E+00  0.00000000000E+00  0.76125379331E+01  0.76125379331E+01  0.00000000000E+00 0. -1.
       -2   -1    0    0    0  501  0.00000000000E+00  0.00000000000E+00 -0.20808131253E+03  0.20808131253E+03  0.00000000000E+00 0.  1.
      -24    2    1    2    0    0  0.00000000000E+00  0.00000000000E+00 -0.20046877459E+03  0.21569385046E+03  0.79599670471E+02 0.  0.
       11    1    3    3    0    0 -0.26454633277E+02 -0.24111759564E+02 -0.53081739165E+02  0.64022617908E+02  0.00000000000E+00 0. -1.
      -12    1    3    3    0    0  0.26454633277E+02  0.24111759564E+02 -0.14738703543E+03  0.15167123255E+03  0.00000000000E+00 0.  1.
</event>
<event>
 5   0  0.8936300E+00  0.8075235E+02  0.7957747E-01  0.1325555E+00
        1   -1    0    0  501    0  0.00000000000E+00  0.00000000000E+00  0.99839546510E+01  0.99839546510E+01  0.00000000000E+00 0. -1.
       -2   -1    0    0    0  501  0.00000000000E+00  0.00000000000E+00 -0.16328555180E+03  0.16328555180E+03  0.00000000000E+00 0.  1.
      -24    2    1    2    0    0  0.00000000000E+00  0.00000000000E+00 -0.15330159715E+03  0.17326950645E+03  0.80752350910E+02 0.  0.
       11    1    3    3    0    0  0.10134384558E+02 -0.59077082622E+01  0.62469754244E+01  0.13290277244E+02  0.00000000000E+00 0. -1.
      -12    1    3    3    0    0 -0.10134384558E+02  0.59077082622E+01 -0.15954857258E+03  0.15997922921E+03  0.00000000000E+00 0.  1.
</event>
<event>
 5   0  0.8936300E+00  0.8146050E+02  0.7957747E-01  0.1323686E+00
        1   -1    0    0  501    0  0.00000000000E+00  0.00000000000E+00  0.58787256639E+02  0.58787256639E+02  0.00000000000E+00 0. -1.
       -2   -1    0    0    0  501  0.00000000000E+00  0.00000000000E+00 -0.28219608862E+02  0.28219608862E+02  0.00000000000E+00 0.  1.
      -24    2    1    2    0    0  0.00000000000E+00  0.00000000000E+00  0.30567647776E+02  0.87006865501E+02  0.81460503029E+02 0.  0.
       11    1    3    3    0    0 -0.21442714291E+02  0.49008445445E+01  0.51898246109E+02  0.56366978121E+02  0.00000000000E+00 0. -1.
      -12    1    3    3    0    0  0.21442714291E+02 -0.49008445445E+01 -0.21330598332E+02  0.30639887379E+02  0.00000000000E+00 0.  1.
</event>
<event>
 5   0  0.8936300E+00  0.7897003E+02  0.7957747E-01  0.1330357E+00
        1   -1    0    0  501    0  0.00000000000E+00  0.00000000000E+00  0.87442665734E+01  0.87442665734E+01  0.00000000000E+00 0. -1.
       -2   -1    0    0    0  501  0.00000000000E+00  0.00000000000E+00 -0.17829583183E+03  0.17829583183E+03  0.00000000000E+00 0.  1.
      -24    2    1    2    0    0  0.00000000000E+00  0.00000000000E+00 -0.16955156526E+03  0.18704009841E+03  0.78970026782E+02 0.  0.
       11    1    3    3    0    0  0.37958955964E+02  0.64774586245E+01 -0.64096981644E+02  0.74774747502E+02  0.00000000000E+00 0. -1.
      -12    1    3    3    0    0 -0.37958955964E+02 -0.64774586245E+01 -0.10545458362E+03  0.11226535090E+03  0.00000000000E+00 0.  1.
</event>
<event>
 5   0  0.8936300E+00  0.7372845E+02  0.7957747E-01  0.1345356E+00
        1   -1    0    0  501    0  0.00000000000E+00  0.00000000000E+00  0.90824181446E+02  0.90824181446E+02  0.00000000000E+00 0. -1.
       -2   -1    0    0    0  501  0.00000000000E+00  0.00000000000E+00 -0.14962658066E+02  0.14962658066E+02  0.00000000000E+00 0.  1.
      -24    2    1    2    0    0  0.00000000000E+00  0.00000000000E+00  0.75861523380E+02  0.10578683951E+03  0.73728452340E+02 0.  0.
       11    1    3    3    0    0 -0.60110817835E+00 -0.30845707222E+02  0.66882517708E+02  0.73655211357E+02  0.00000000000E+00 0. -1.
      -12    1    3    3    0    0  0.60110817835E+00  0.30845707222E+02  0.89790056714E+01  0.32131628155E+02  0.00000000000E+00 0.  1.
</event>
<event>
 5   0  0.8936300E+00  0.8209534E+02  0.7957747E-01  0.1322028E+00
        1   -1    0    0  501    0  0.00000000000E+00  0.00000000000E+00  0.34261500011E+03  0.34261500011E+03  0.00000000000E+00 0. -1.
       -2   -1    0    0    0  501  0.00000000000E+00  0.00000000000E+00 -0.49177978265E+01  0.49177978265E+01  0.00000000000E+00 0.  1.
      -24    2    1    2    0    0  0.00000000000E+00  0.00000000000E+00  0.33769720229E+03  0.34753279794E+03  0.82095342203E+02 0.  0.
       11    1    3    3    0    0 -0.39640415465E+02 -0.59979800934E+01  0.20613346584E+03  0.20999605721E+03  0.00000000000E+00 0. -1.
      -12    1    3    3    0    0  0.39640415465E+02  0.59979800934E+01  0.13156373644E+03  0.13753674073E+03  0.00000000000E+00 0.  1.
</event>
<event>
 5   0  0.8936300E+00  0.7427231E+02  0.7957747E-01  0.1343735E+00
        1   -1    0    0  501    0  0.00000000000E+00  0.00000000000E+00  0.17294900801E+02  0.17294900801E+02  0.00000000000E+00 0. -1.
       -2   -1    0    0    0  501  0.00000000000E+00  0.00000000000E+00 -0.79739924281E+02  0.79739924281E+02  0.00000000000E+00 0.  1.
      -24    2    1    2    0    0  0.00000000000E+00  0.00000000000E+00 -0.62445023480E+02  0.97034825083E+02  0.74272311943E+02 0.  0.
       11    1    3    3    0    0  0.10280814726E+02 -0.10517299670E+01  0.15378379009E+02  0.18528244069E+02  0.00000000000E+00 0. -1.
      -12    1    3    3    0    0 -0.10280814726E+02  0.10517299670E+01 -0.77823402489E+02  0.78506581013E+02  0.00000000000E+00 0.  1.
</event>
<event>
 5   0  0.8936300E+00  0.8096906E+02  0.7957747E-01  0.1324981E+00
        1   -1    0    0  501    0  0.00000000000E+00  0.00000000000E+00  0.60191657690E+02  0.60191657690E+02  0.00000000000E+00 0. -1.
       -2   -1    0    0    0  501  0.00000000000E+00  0.00000000000E+00 -0.27229636846E+02  0.27229636846E+02  0.00000000000E+00 0.  1.
      -24    2    1    2    0    0  0.00000000000E+00  0.00000000000E+00  0.32962020844E+02  0.87421294536E+02  0.80969055325E+02 0.  0.
       11    1    3    3    0    0  0.18021983324E+02  0.12623593928E+02  0.53172128429E+02  0.57544958496E+02  0.00000000000E+00 0. -1.
      -12    1    3    3    0    0 -0.18021983324E+02 -0.12623593928E+02 -0.20210107585E+02  0.29876336040E+02  0.00000000000E+00 0.  1.
</event>
<event>
 5   0  0.8936300E+00  0.7760991E+02  0.7957747E-01  0.1334120E+00
        1   -1    0    0  501    0  0.00000000000E+00  0.00000000000E+00  0.15457549002E+02  0.15457549002E+02  0.00000000000E+00 0. -1.
       -2   -1    0    0    0  501  0.00000000000E+00  0.00000000000E+00 -0.97416770072E+02  0.97416770072E+02  0.00000000000E+00 0.  1.
      -24    2    1    2    0    0  0.00000000000E+00  0.00000000000E+00 -0.81959221070E+02  0.11287431907E+03  0.77609909085E+02 0.  0.
       11    1    3    3    0    0  0.16908285403E+02 -0.26952263035E+02 -0.86704329871E+01  0.32977128532E+02  0.00000000000E+00 0. -1.
      -12    1    3    3    0    0 -0.16908285403E+02  0.26952263035E+02 -0.73288788083E+02  0.79897190543E+02  0.00000000000E+00 0.  1.
</event>
<event>
 5   0  0.8936300E+00  0.7940348E+02  0.7957747E-01  0.1329176E+00
        1   -1    0    0  501    0  0.00000000000E+00  0.00000000000E+00  0.12700161629E+03  0.12700161629E+03  0.00000000000E+00 0. -1.
       -2   -1    0    0    0  501  0.00000000000E+00  0.00000000000E+00 -0.12411087300E+02  0.12411087300E+02  0.00000000000E+00 0.  1.
      -24    2    1    2    0    0  0.00000000000E+00  0.00000000000E+00  0.11459052899E+03  0.13941270359E+03  0.79403479699E+02 0.  0.
       11    1    3    3    0    0 -0.27031357666E+02  0.19834962516E+02  0.94627497190E+02  0.10039164935E+03  0.00000000000E+00 0. -1.
      -12    1    3    3    0    0  0.27031357666E+02 -0.19834962516E+02  0.19963031802E+02  0.39021054240E+02  0.00000000000E+00 0.  1.
</event>
<event>
 5   0  0.8936300E+00  0.7989135E+02  0.7957747E-01  0.1327857E+00
        1   -1    0    0  501    0  0.00000000000E+00  0.00000000000E+00  0.43717951975E+02  0.43717951975E+02  0.00000000000E+00 0. -1.
       -2   -1    0    0    0  501  0.00000000000E+00  0.00000000000E+00 -0.36498891094E+02  0.36498891094E+02  0.00000000000E+00 0.  1.
      -24    2    1    2    0    0  0.00000000000E+00  0.00000000000E+00  0.72190608813E+01  0.80216843070E+02  0.79891345414E+02 0.  0.
       11    1    3    3    0    0 -0.41177098225E+01  0.23721014002E+02  0.35614383177E+02  0.42988676747E+02  0.00000000000E+00 0. -1.
      -12    1    3    3    0    0  0.41177098225E+01 -0.23721014002E+02 -0.28395322295E+02  0.37228166322E+02  0.00000000000E+00 0.  1.
</event>
<event>
 5   0  0.8936300E+00  0.7836967E+02  0.7957747E-01  0.1332007E+00
        1   -1    0    0  501    0  0.00000000000E+00  0.00000000000E+00  0.78421532199E+01  0.78421532199E+01  0.00000000000E+00 0. -1.
       -2   -1    0    0    0  501  0.00000000000E+00  0.00000000000E+00 -0.19579460619E+03  0.19579460619E+03  0.00000000000E+00 0.  1.
      -24    2    1    2    0    0  0.00000000000E+00  0.00000000000E+00 -0.18795245297E+03  0.20363675941E+03  0.78369670189E+02 0.  0.
       11    1    3    3    0    0  0.26370514487E+02  0.14705025181E+02 -0.29077802429E+02  0.41918497039E+02  0.00000000000E+00 0. -1.
      -12    1    3    3    0    0 -0.26370514487E+02 -0.14705025181E+02 -0.15887465054E+03  0.16171826237E+03  0.00000000000E+00 0.  1.
</event>
<event>
 5   0  0.8936300E+00  0.8160823E+02  0.7957747E-01  0.1323298E+00
        1   -1    0    0  501    0  0.00000000000E+00  0.00000000000E+00  0.22834053518E+02  0.22834053518E+02  0.00000000000E+00 0. -1.
       -2   -1    0    0    0  501  0.00000000000E+00  0.00000000000E+00 -0.72916354613E+02  0.72916354613E+02  0.00000000000E+00 0.  1.
      -24    2    1    2    0    0  0.00000000000E+00  0.00000000000E+00 -0.50082301095E+02  0.95750408131E+02  0.81608233496E+02 0.  0.
       11    1    3    3    0    0 -0.31979279751E+02  0.38511819082E+01  0.43490901446E+01  0.32502623287E+02  0.00000000000E+00 0. -1.
      -12    1    3    3    0    0  0.31979279751E+02 -0.38511819082E+01 -0.54431391239E+02  0.63247784844E+02  0.00000000000E+00 0.  1.
</event>
<event>
 5   0  0.8936300E+00  0.7956483E+02  0.7957747E-01  0.1328739E+00
        1   -1    0    0  501    0  0.00000000000E+00  0.00000000000E+00  0.26057813188E+02  0.26057813188E+02  0.00000000000E+00 0. -1.
       -2   -1    0    0    0  501  0.00000000000E+00  0.00000000000E+00 -0.60735738367E+02  0.60735738367E+02  0.00000000000E+00 0.  1.
      -24    2    1    2    0    0  0.00000000000E+00  0.00000000000E+00 -0.34677925180E+02  0.86793551555E+02  0.79564829521E+02 0.  0.
       11    1    3    3    0    0  0.19074558732E+02  0.31763737334E+02 -0.15360144509E+01  0.37082787660E+02  0.00000000000E+00 0. -1.
      -12    1    3    3    0    0 -0.19074558732E+02 -0.31763737334E+02 -0.33141910729E+02  0.49710763895E+02  0.00000000000E+00 0.  1.
</event>
<event>
 5   0  0.8936300E+00  0.7751626E+02  0.7957747E-01  0.1334382E+00
        1   -1    0    0  501    0  0.00000000000E+00  0.00000000000E+00  0.11464354683E+02  0.11464354683E+02  0.00000000000E+00 0. -1.
       -2   -1    0    0    0  501  0.00000000000E+00  0.00000000000E+00 -0.13103158472E+03  0.13103158472E+03  0.00000000000E+00 0.  1.
      -24    2    1    2    0    0  0.00000000000E+00  0.00000000000E+00 -0.11956723004E+03  0.14249593940E+03  0.77516257956E+02 0.  0.
       11    1    3    3    0    0 -0.28593226438E+02 -0.14045841105E+02 -0.19202573952E+02  0.37196735029E+02  0.00000000000E+00 0. -1.
      -12    1    3    3    0    0  0.28593226438E+02  0.14045841105E+02 -0.10036465609E+03  0.10529920437E+03  0.00000000000E+00 0.  1.
</event>
<event>
 5   0  0.8936300E+00  0.8051183E+02  0.7957747E-01  0.1326195E+00
        1   -1    0    0  501    0  0.00000000000E+00  0.00000000000E+00  0.89582845930E+02  0.89582845930E+02  0.00000000000E+00 0. -1.
       -2   -1    0    0    0  501  0.00000000000E+00  0.00000000000E+00 -0.18089834188E+02  0.18089834188E+02  0.00000000000E+00 0.  1.
      -24    2    1    2    0    0  0.00000000000E+00  0.00000000000E+00  0.71493011742E+02  0.10767268012E+03  0.80511833389E+02 0.  0.
       11    1    3    3    0    0  0.93457309098E+01  0.15232512260E+02  0.83987059044E+02  0.85867329077E+02  0.00000000000E+00 0. -1.
      -12    1    3    3    0    0 -0.93457309098E+01 -0.15232512260E+02 -0.12494047302E+02  0.21805351040E+02  0.00000000000E+00 0.  1.
</event>
<event>
 5   0  0.8936300E+00  0.8627667E+02  0.7957747E-01  0.1311518E+00
        1   -1    0    0  501    0  0.00000000000E+00  0.00000000000E+00  0.20253987337E+03  0.20253987337E+03  0.00000000000E+00 0. -1.
       -2   -1    0    0    0  501  0.00000000000E+00  0.00000000000E+00 -0.91878999894E+01  0.91878999894E+01  0.00000000000E+00 0.  1.
      -24    2    1    2    0    0  0.00000000000E+00  0.00000000000E+00  0.19335197338E+03  0.21172777336E+03  0.86276673565E+02 0.  0.
       11    1    3    3    0    0  0.23214780091E+02 -0.33278391048E+02  0.13262089135E+03  0.13868914215E+03  0.00000000000E+00 0. -1.
      -12    1    3    3    0    0 -0.23214780091E+02  0.33278391048E+02  0.60731082024E+02  0.73038631211E+02  0.00000000000E+00 0.  1.
</event>
<event>
 5   0  0.8936300E+00  0.8076082E+02  0.7957747E-01  0.1325532E+00
        1   -1    0    0  501    0  0.00000000000E+00  0.00000000000E+00  0.25142869487E+02  0.25142869487E+02  0.00000000000E+00 0. -1.
       -2   -1    0    0    0  501  0.00000000000E+00  0.00000000000E+00 -0.64852490840E+02  0.64852490840E+02  0.00000000000E+00 0.  1.
      -24    2    1    2    0    0  0.00000000000E+00  0.00000000000E+00 -0.39709621353E+02  0.89995360328E+02  0.80760824987E+02 0.  0.
       11    1    3    3    0    0 -0.37447310623E+02 -0.10429248855E+02 -0.76728613663E+01  0.39622507570E+02  0.00000000000E+00 0. -1.
      -12    1    3    3    0    0  0.37447310623E+02  0.10429248855E+02 -0.32036759987E+02  0.50372852758E+02  0.00000000000E+00 0.  1.
</event>
<event>
 5   0  0.8936300E+00  0.8065625E+02  0.7957747E-01  0.1325810E+00
        1   -1    0    0  501    0  0.00000000000E+00  0.00000000000E+00  0.61300216484E+02  0.61300216484E+02  0.00000000000E+00 0. -1.
       -2   -1    0    0    0  501  0.00000000000E+00  0.00000000000E+00 -0.26531027809E+02  0.26531027809E+02  0.00000000000E+00 0.  1.
      -24    2    1    2    0    0  0.00000000000E+00  0.00000000000E+00  0.34769188676E+02  0.87831244293E+02  0.80656252038E+02 0.  0.
       11    1    3    3    0    0 -0.23719861704E+02  0.31142844658E+02  0.27933954910E+02  0.48091729534E+02  0.00000000000E+00 0. -1.
      -12    1    3    3    0    0  0.23719861704E+02 -0.31142844658E+02  0.68352337660E+01  0.39739514759E+02  0.00000000000E+00 0.  1.
</event>
<event>
 5   0  0.8936300E+00  0.7961268E+02  0.7957747E-01  0.1328609E+00
       -2   -1    0    0    0  501  0.00000000000E+00  0.00000000000E+00  0.11672284642E+03  0.11672284642E+03  0.00000000000E+00 0.  1.
        1   -1    0    0  501    0  0.00000000000E+00  0.00000000000E+00 -0.13575273541E+02  0.13575273541E+02  0.00000000000E+00 0. -1.
      -24    2    1    2    0    0  0.00000000000E+00  0.00000000000E+00  0.10314757288E+03  0.13029811996E+03  0.79612676595E+02 0.  0.
       11    1    3    3    0    0  0.23869331429E+02 -0.10745028684E+02  0.24921728983E+01  0.26294705741E+02  0.00000000000E+00 0. -1.
      -12    1    3    3    0    0 -0.23869331429E+02  0.10745028684E+02  0.10065539998E+03  0.10400341422E+03  0.00000000000E+00 0.  1.
</event>
<event>
 5   0  0.8936300E+00  0.6954289E+02  0.7957747E-01  0.1358389E+00
        1   -1    0    0  501    0  0.00000000000E+00  0.00000000000E+00  0.93942358182E+01  0.93942358182E+01  0.00000000000E+00 0. -1.
       -2   -1    0    0    0  501  0.00000000000E+00  0.00000000000E+00 -0.12870160510E+03  0.12870160510E+03  0.00000000000E+00 0.  1.
      -24    2    1    2    0    0  0.00000000000E+00  0.00000000000E+00 -0.11930736929E+03  0.13809584092E+03  0.69542885431E+02 0.  0.
       11    1    3    3    0    0 -0.13004328267E+02  0.19031420957E+02 -0.79571686587E+01  0.24384914811E+02  0.00000000000E+00 0. -1.
      -12    1    3    3    0    0  0.13004328267E+02 -0.19031420957E+02 -0.11135020063E+03  0.11371092611E+03  0.00000000000E+00 0.  1.
</event>
<event>
 5   0  0.8936300E+00  0.7998087E+02  0.7957747E-01  0.1327616E+00
        1   -1    0    0  501    0  0.00000000000E+00  0.00000000000E+00  0.61009752199E+01  0.61009752199E+01  0.00000000000E+00 0. -1.
       -2   -1    0    0    0  501  0.00000000000E+00  0.00000000000E+00 -0.26212776766E+03  0.26212776766E+03  0.00000000000E+00 0.  1.
      -24    2    1    2    0    0  0.00000000000E+00  0.00000000000E+00 -0.25602679244E+03  0.26822874288E+03  0.79980873087E+02 0.  0.
       11    1    3    3    0    0 -0.16520224890E+02 -0.31521804558E+02 -0.66843038610E+02  0.75726704693E+02  0.00000000000E+00 0. -1.
      -12    1    3    3    0    0  0.16520224890E+02  0.31521804558E+02 -0.18918375383E+03  0.19250203819E+03  0.00000000000E+00 0.  1.
</event>
<event>
 5   0  0.8936300E+00  0.8387913E+02  0.7957747E-01  0.1317460E+00
        1   -1    0    0  501    0  0.00000000000E+00  0.00000000000E+00  0.25878457631E+02  0.25878457631E+02  0.00000000000E+00 0. -1.
       -2   -1    0    0    0  501  0.00000000000E+00  0.00000000000E+00 -0.67968776457E+02  0.67968776457E+02  0.00000000000E+00 0.  1.
      -24    2    1    2    0    0  0.00000000000E+00  0.00000000000E+00 -0.42090318826E+02  0.93847234088E+02  0.83879129747E+02 0.  0.
       11    1    3    3    0    0 -0.13239441984E+02  0.18623948555E+02  0.18302240446E+02  0.29276377665E+02  0.00000000000E+00 0. -1.
      -12    1    3    3    0    0  0.13239441984E+02 -0.18623948555E+02 -0.60392559273E+02  0.64570856424E+02  0.00000000000E+00 0.  1.
</event>
<event>
 5   0  0.8936300E+00  0.8069432E+02  0.7957747E-01  0.1325709E+00
        1   -1    0    0  501    0  0.00000000000E+00  0.00000000000E+00  0.11470621814E+02  0.11470621814E+02  0.00000000000E+00 0. -1.
       -2   -1    0    0    0  501  0.00000000000E+00  0.00000000000E+00 -0.14191850454E+03  0.14191850454E+03  0.00000000000E+00 0.  1.
      -24    2    1    2    0    0  0.00000000000E+00  0.00000000000E+00 -0.13044788273E+03  0.15338912636E+03  0.80694324313E+02 0.  0.
       11    1    3    3    0    0  0.21128038555E+02 -0.34076205629E+02 -0.73790859628E+02  0.83980192711E+02  0.00000000000E+00 0. -1.
      -12    1    3    3    0    0 -0.21128038555E+02  0.34076205629E+02 -0.56657023102E+02  0.69408933647E+02  0.00000000000E+00 0.  1.
</event>
<event>
 5   0  0.8936300E+00  0.8320969E+02  0.7957747E-01  0.1319159E+00
        1   -1    0    0  501    0  0.00000000000E+00  0.00000000000E+00  0.99018525032E+01  0.99018525032E+01  0.00000000000E+00 0. -1.
       -2   -1    0    0    0  501  0.00000000000E+00  0.00000000000E+00 -0.17481205116E+03  0.17481205116E+03  0.00000000000E+00 0.  1.
      -24    2    1    2    0    0  0.00000000000E+00  0.00000000000E+00 -0.16491019865E+03  0.18471390366E+03  0.83209690453E+02 0.  0.
       11    1    3    3    0    0  0.27704838861E+01  0.41197121398E+02 -0.71117553589E+02  0.82234936742E+02  0.00000000000E+00 0. -1.
      -12    1    3    3    0    0 -0.27704838861E+01 -0.41197121398E+02 -0.93792645063E+02  0.10247896692E+03  0.00000000000E+00 0.  1.
</event>
<event>
 5   0  0.8936300E+00  0.8642989E+02  0.7957747E-01  0.1311146E+00
        1   -1    0    0  501    0  0.00000000000E+00  0.00000000000E+00  0.13482792108E+03  0.13482792108E+03  0.00000000000E+00 0. -1.
       -2   -1    0    0    0  501  0.00000000000E+00  0.00000000000E+00 -0.13851223486E+02  0.13851223486E+02  0.00000000000E+00 0.  1.
      -24    2    1    2    0    0  0.00000000000E+00  0.00000000000E+00  0.12097669759E+03  0.14867914456E+03  0.86429894528E+02 0.  0.
       11    1    3    3    0    0 -0.38692891012E+02 -0.61461002528E+01  0.91861525102E+02  0.99867182584E+02  0.00000000000E+00 0. -1.
      -12    1    3    3    0    0  0.38692891012E+02  0.61461002528E+01  0.29115172488E+02  0.48811961979E+02  0.00000000000E+00 0.  1.
</event>
<event>
 5   0  0.8936300E+00  0.7857417E+02  0.7957747E-01  0.1331443E+00
        1   -1    0    0  501    0  0.00000000000E+00  0.00000000000E+00  0.42608867497E+01  0.42608867497E+01  0.00000000000E+00 0. -1.
       -2   -1    0    0    0  501  0.00000000000E+00  0.00000000000E+00 -0.36224267132E+03  0.36224267132E+03  0.00000000000E+00 0.  1.
      -24    2    1    2    0    0  0.00000000000E+00  0.00000000000E+00 -0.35798178457E+03  0.36650355807E+03  0.78574168744E+02 0.  0.
       11    1    3    3    0    0 -0.13562487957E+02  0.21733101159E+02 -0.40056203659E+02  0.47547536394E+02  0.00000000000E+00 0. -1.
      -12    1    3    3    0    0  0.13562487957E+02 -0.21733101159E+02 -0.31792558092E+03  0.31895602168E+03  0.00000000000E+00 0.  1.
</event>
<event>
 5   0  0.8936300E+00  0.7971814E+02  0.7957747E-01  0.1328324E+00
       -4   -1    0    0    0  501  0.00000000000E+00  0.00000000000E+00  0.97850756488E+02  0.97850756488E+02  0.00000000000E+00 0.  1.
        3   -1    0    0  501    0  0.00000000000E+00  0.00000000000E+00 -0.16236413198E+02  0.16236413198E+02  0.00000000000E+00 0. -1.
      -24    2    1    2    0    0  0.00000000000E+00  0.00000000000E+00  0.81614343290E+02  0.11408716969E+03  0.79718136307E+02 0.  0.
       11    1    3    3    0    0 -0.15184222690E+02 -0.15790086136E+02 -0.68488310620E+01  0.22951991761E+02  0.00000000000E+00 0. -1.
      -12    1    3    3    0    0  0.15184222690E+02  0.15790086136E+02  0.88463174352E+02  0.91135177924E+02  0.00000000000E+00 0.  1.
</event>
<event>
 5   0  0.8936300E+00  0.7985740E+02  0.7957747E-01  0.1327949E+00
        1   -1    0    0  501    0  0.00000000000E+00  0.00000000000E+00  0.52147588611E+01  0.52147588611E+01  0.00000000000E+00 0. -1.
       -2   -1    0    0    0  501  0.00000000000E+00  0.00000000000E+00 -0.30572862690E+03  0.30572862690E+03  0.00000000000E+00 0.  1.
      -24    2    1    2    0    0  0.00000000000E+00  0.00000000000E+00 -0.30051386804E+03  0.31094338576E+03  0.79857399563E+02 0.  0.
       11    1    3    3    0    0 -0.13358808581E+02  0.37414762537E+02 -0.13469230279E+03  0.14042912324E+03  0.00000000000E+00 0. -1.
      -12    1    3    3    0    0  0.13358808581E+02 -0.37414762537E+02 -0.16582156525E+03  0.17051426253E+03  0.00000000000E+00 0.  1.
</event>
<event>
 5   0  0.8936300E+00  0.8024804E+02  0.7957747E-01  0.1326899E+00
        1   -1    0    0  501    0  0.00000000000E+00  0.00000000000E+00  0.34033209852E+02  0.34033209852E+02  0.00000000000E+00 0. -1.
       -2   -1    0    0    0  501  0.00000000000E+00  0.00000000000E+00 -0.47304879645E+02  0.47304879645E+02  0.00000000000E+00 0.  1.
      -24    2    1    2    0    0  0.00000000000E+00  0.00000000000E+00 -0.13271669793E+02  0.81338089498E+02  0.80248037883E+02 0.  0.
       11    1    3    3    0    0  0.17221027013E+02 -0.36193923720E+02 -0.47743119824E+01  0.40365306149E+02  0.00000000000E+00 0. -1.
      -12    1    3    3    0    0 -0.17221027013E+02  0.36193923720E+02 -0.84973578104E+01  0.40972783349E+02  0.00000000000E+00 0.  1.
</event>
<event>
 5   0  0.8936300E+00  0.7998022E+02  0.7957747E-01  0.1327618E+00
        1   -1    0    0  501    0  0.00000000000E+00  0.00000000000E+00  0.16770324105E+03  0.16770324105E+03  0.00000000000E+00 0. -1.
       -2   -1    0    0    0  501  0.00000000000E+00  0.00000000000E+00 -0.95359447058E+01  0.95359447058E+01  0.00000000000E+00 0.  1.
      -24    2    1    2    0    0  0.00000000000E+00  0.00000000000E+00  0.15816729635E+03  0.17723918576E+03  0.79980218396E+02 0.  0.
       11    1    3    3    0    0  0.80638801285E+01  0.29406126633E+02  0.13642134599E+03  0.13978744610E+03  0.00000000000E+00 0. -1.
      -12    1    3    3    0    0 -0.80638801285E+01 -0.29406126633E+02  0.21745950355E+02  0.37451739654E+02  0.00000000000E+00 0.  1.
</event>
<event>
 5   0  0.8936300E+00  0.9724183E+02  0.7957747E-01  0.1286879E+00
        1   -1    0    0  501    0  0.00000000000E+00  0.00000000000E+00  0.19386961892E+02  0.19386961892E+02  0.00000000000E+00 0. -1.
       -2   -1    0    0    0  501  0.00000000000E+00  0.00000000000E+00 -0.12193726752E+03  0.12193726752E+03  0.00000000000E+00 0.  1.
      -24    2    1    2    0    0  0.00000000000E+00  0.00000000000E+00 -0.10255030563E+03  0.14132422942E+03  0.97241825543E+02 0.  0.
       11    1    3    3    0    0 -0.15054721563E+02 -0.42109861245E+02 -0.23543312235E+02  0.50538822764E+02  0.00000000000E+00 0. -1.
      -12    1    3    3    0    0  0.15054721563E+02  0.42109861245E+02 -0.79006993396E+02  0.90785406652E+02  0.00000000000E+00 0.  1.
</event>
<event>
 5   0  0.8936300E+00  0.7480745E+02  0.7957747E-01  0.1342155E+00
        1   -1    0    0  501    0  0.00000000000E+00  0.00000000000E+00  0.30643029714E+02  0.30643029714E+02  0.00000000000E+00 0. -1.
       -2   -1    0    0    0  501  0.00000000000E+00  0.00000000000E+00 -0.45656011790E+02  0.45656011790E+02  0.00000000000E+00 0.  1.
      -24    2    1    2    0    0  0.00000000000E+00  0.00000000000E+00 -0.15012982076E+02  0.76299041505E+02  0.74807446847E+02 0.  0.
       11    1    3    3    0    0  0.13408388170E+02 -0.10480337654E+02  0.26465538761E+02  0.31465013786E+02  0.00000000000E+00 0. -1.
      -12    1    3    3    0    0 -0.13408388170E+02  0.10480337654E+02 -0.41478520837E+02  0.44834027718E+02  0.00000000000E+00 0.  1.
</event>
<event>
 5   0  0.8936300E+00  0.7894483E+02  0.7957747E-01  0.1330426E+00
        1   -1    0    0  501    0  0.00000000000E+00  0.00000000000E+00  0.24907554122E+02  0.24907554122E+02  0.00000000000E+00 0. -1.
       -2   -1    0    0    0  501  0.00000000000E+00  0.00000000000E+00 -0.62554179636E+02  0.62554179636E+02  0.00000000000E+00 0.  1.
      -24    2    1    2    0    0  0.00000000000E+00  0.00000000000E+00 -0.37646625514E+02  0.87461733759E+02  0.78944831746E+02 0.  0.
       11    1    3    3    0    0  0.94806795280E+01 -0.24931918212E+02  0.13411887875E+02  0.29855695711E+02  0.00000000000E+00 0. -1.
      -12    1    3    3    0    0 -0.94806795280E+01  0.24931918212E+02 -0.51058513389E+02  0.57606038047E+02  0.00000000000E+00 0.  1.
</event>
<event>
 5   0  0.8936300E+00  0.8135817E+02  0.7957747E-01  0.1323954E+00
        1   -1    0    0  501    0  0.00000000000E+00  0.00000000000E+00  0.65946690578E+02  0.65946690578E+02  0.00000000000E+00 0. -1.
       -2   -1    0    0    0  501  0.00000000000E+00  0.00000000000E+00 -0.25092811046E+02  0.25092811046E+02  0.00000000000E+00 0.  1.
      -24    2    1    2    0    0  0.00000000000E+00  0.00000000000E+00  0.40853879532E+02  0.91039501624E+02  0.81358167280E+02 0.  0.
       11    1    3    3    0    0 -0.23495199525E+02  0.10251649538E+02  0.55771415648E+02  0.61380546775E+02  0.00000000000E+00 0. -1.
      -12    1    3    3    0    0  0.23495199525E+02 -0.10251649538E+02 -0.14917536117E+02  0.29658954849E+02  0.00000000000E+00 0.  1.
</event>
<event>
 5   0  0.8936300E+00  0.7050265E+02  0.7957747E-01  0.1355310E+00
        1   -1    0    0  501    0  0.00000000000E+00  0.00000000000E+00  0.22516095075E+02  0.22516095075E+02  0.00000000000E+00 0. -1.
       -2   -1    0    0    0  501  0.00000000000E+00  0.00000000000E+00 -0.55189680305E+02  0.55189680305E+02  0.00000000000E+00 0.  1.
      -24    2    1    2    0    0  0.00000000000E+00  0.00000000000E+00 -0.32673585229E+02  0.77705775380E+02  0.70502654955E+02 0.  0.
       11    1    3    3    0    0 -0.14010549865E+02 -0.32124796754E+02 -0.20513124712E+02  0.40608944329E+02  0.00000000000E+00 0. -1.
      -12    1    3    3    0    0  0.14010549865E+02  0.32124796754E+02 -0.12160460517E+02  0.37096831051E+02  0.00000000000E+00 0.  1.
</event>
<event>
 5   0  0.8936300E+00  0.8014295E+02  0.7957747E-01  0.1327181E+00
        1   -1    0    0  501    0  0.00000000000E+00  0.00000000000E+00  0.61456247929E+02  0.61456247929E+02  0.00000000000E+00 0. -1.
       -2   -1    0    0    0  501  0.00000000000E+00  0.00000000000E+00 -0.26127905590E+02  0.26127905590E+02  0.00000000000E+00 0.  1.
      -24    2    1    2    0    0  0.00000000000E+00  0.00000000000E+00  0.35328342338E+02  0.87584153519E+02  0.80142948382E+02 0.  0.
       11    1    3    3    0    0  0.24619600233E+02  0.30476198731E+02  0.84686628128E+01  0.40082934704E+02  0.00000000000E+00 0. -1.
      -12    1    3    3    0    0 -0.24619600233E+02 -0.30476198731E+02  0.26859679526E+02  0.47501218815E+02  0.00000000000E+00 0.  1.
</event>
<event>
 5   0  0.8936300E+00  0.7996177E+02  0.7957747E-01  0.1327668E+00
        1   -1    0    0  501    0  0.00000000000E+00  0.00000000000E+00  0.14249905357E+02  0.14249905357E+02  0.00000000000E+00 0. -1.
       -2   -1    0    0    0  501  0.00000000000E+00  0.00000000000E+00 -0.11217416236E+03  0.11217416236E+03  0.00000000000E+00 0.  1.
      -24    2    1    2    0    0  0.00000000000E+00  0.00000000000E+00 -0.97924257007E+02  0.12642406772E+03  0.79961770797E+02 0.  0.
       11    1    3    3    0    0 -0.18733973750E+02 -0.34957522453E+02 -0.40981152484E+02  0.57030211357E+02  0.00000000000E+00 0. -1.
      -12    1    3    3    0    0  0.18733973750E+02  0.34957522453E+02 -0.56943104522E+02  0.69393856365E+02  0.00000000000E+00 0.  1.
</event>
<event>
 5   0  0.8936300E+00  0.8226553E+02  0.7957747E-01  0.1321586E+00
        1   -1    0    0  501    0  0.00000000000E+00  0.00000000000E+00  0.25937015626E+02  0.25937015626E+02  0.00000000000E+00 0. -1.
       -2   -1    0    0    0  501  0.00000000000E+00  0.00000000000E+00 -0.65231273121E+02  0.65231273121E+02  0.00000000000E+00 0.  1.
      -24    2    1    2    0    0  0.00000000000E+00  0.00000000000E+00 -0.39294257495E+02  0.91168288746E+02  0.82265534709E+02 0.  0.
       11    1    3    3    0    0  0.31630498772E+01  0.28010990431E+02  0.13549261359E+02  0.31276236232E+02  0.00000000000E+00 0. -1.
      -12    1    3    3    0    0 -0.31630498772E+01 -0.28010990431E+02 -0.52843518854E+02  0.59892052514E+02  0.00000000000E+00 0.  1.
</event>
<event>
 5   0  0.8936300E+00  0.7955415E+02  0.7957747E-01  0.1328768E+00
        1   -1    0    0  501    0  0.00000000000E+00  0.00000000000E+00  0.33042999481E+02  0.33042999481E+02  0.00000000000E+00 0. -1.
       -2   -1    0    0    0  501  0.00000000000E+00  0.00000000000E+00 -0.47883539454E+02  0.47883539454E+02  0.00000000000E+00 0.  1.
      -24    2    1    2    0    0  0.00000000000E+00  0.00000000000E+00 -0.14840539973E+02  0.80926538935E+02  0.79554151854E+02 0.  0.
       11    1    3    3    0    0  0.10213930650E+02 -0.32193227593E+02 -0.28794344370E+02  0.44382908308E+02  0.00000000000E+00 0. -1.
      -12    1    3    3    0    0 -0.10213930650E+02  0.32193227593E+02  0.13953804397E+02  0.36543630626E+02  0.00000000000E+00 0.  1.
</event>
<event>
 5   0  0.8936300E+00  0.8200017E+02  0.7957747E-01  0.1322275E+00
        1   -1    0    0  501    0  0.00000000000E+00  0.00000000000E+00  0.25537672821E+01  0.25537672821E+01  0.00000000000E+00 0. -1.
       -2   -1    0    0    0  501  0.00000000000E+00  0.00000000000E+00 -0.65824593074E+03  0.65824593074E+03  0.00000000000E+00 0.  1.
      -24    2    1    2    0    0  0.00000000000E+00  0.00000000000E+00 -0.65569216346E+03  0.66079969803E+03  0.82000168817E+02 0.  0.
       11    1    3    3    0    0  0.10380252953E+02  0.36628145052E+02 -0.20519867732E+03  0.20870042605E+03  0.00000000000E+00 0. -1.
      -12    1    3    3    0    0 -0.10380252953E+02 -0.36628145052E+02 -0.45049348614E+03  0.45209927197E+03  0.00000000000E+00 0.  1.
</event>
<event>
 5   0  0.8936300E+00  0.7708614E+02  0.7957747E-01  0.1335592E+00
        1   -1    0    0  501    0  0.00000000000E+00  0.00000000000E+00  0.11735447220E+02  0.11735447220E+02  0.00000000000E+00 0. -1.
       -2   -1    0    0    0  501  0.00000000000E+00  0.00000000000E+00 -0.12658812225E+03  0.12658812225E+03  0.00000000000E+00 0.  1.
      -24    2    1    2    0    0  0.00000000000E+00  0.00000000000E+00 -0.11485267503E+03  0.13832356947E+03  0.77086139542E+02 0.  0.
       11    1    3    3    0    0  0.26425718254E+02 -0.28050582173E+02 -0.56271096308E+02  0.68202566119E+02  0.00000000000E+00 0. -1.
      -12    1    3    3    0    0 -0.26425718254E+02  0.28050582173E+02 -0.58581578719E+02  0.70121003350E+02  0.00000000000E+00 0.  1.
</event>
<event>
 5   0  0.8936300E+00  0.8307019E+02  0.7957747E-01  0.1319515E+00
        1   -1    0    0  501    0  0.00000000000E+00  0.00000000000E+00  0.39439334481E+02  0.39439334481E+02  0.00000000000E+00 0. -1.
       -2   -1    0    0    0  501  0.00000000000E+00  0.00000000000E+00 -0.43742225442E+02  0.43742225442E+02  0.00000000000E+00 0.  1.
      -24    2    1    2    0    0  0.00000000000E+00  0.00000000000E+00 -0.43028909609E+01  0.83181559923E+02  0.83070193454E+02 0.  0.
       11    1    3    3    0    0  0.25973349153E+02 -0.19168238895E+02  0.24020311900E+02  0.40236943626E+02  0.00000000000E+00 0. -1.
      -12    1    3    3    0    0 -0.25973349153E+02  0.19168238895E+02 -0.28323202861E+02  0.42944616297E+02  0.00000000000E+00 0.  1.
</event>
<event>
 5   0  0.8936300E+00  0.8297063E+02  0.7957747E-01  0.1319770E+00
        1   -1    0    0  501    0  0.00000000000E+00  0.00000000000E+00  0.92726082030E+02  0.92726082030E+02  0.00000000000E+00 0. -1.
       -2   -1    0    0    0  501  0.00000000000E+00  0.00000000000E+00 -0.18560382081E+02  0.18560382081E+02  0.00000000000E+00 0.  1.
      -24    2    1    2    0    0  0.00000000000E+00  0.00000000000E+00  0.74165699949E+02  0.11128646411E+03  0.82970633632E+02 0.  0.
       11    1    3    3    0    0 -0.38645237102E+02 -0.13164917611E+02  0.46963061800E+02  0.62227795879E+02  0.00000000000E+00 0. -1.
      -12    1    3    3    0    0  0.38645237102E+02  0.13164917611E+02  0.27202638149E+02  0.49058668231E+02  0.00000000000E+00 0.  1.
</event>
<event>
 5   0  0.8936300E+00  0.8157143E+02  0.7957747E-01  0.1323395E+00
        1   -1    0    0  501    0  0.00000000000E+00  0.00000000000E+00  0.58003447128E+02  0.58003447128E+02  0.00000000000E+00 0. -1.
       -2   -1    0    0    0  501  0.00000000000E+00  0.00000000000E+00 -0.28678889854E+02  0.28678889854E+02  0.00000000000E+00 0.  1.
      -24    2    1    2    0    0  0.00000000000E+00  0.00000000000E+00  0.29324557274E+02  0.86682336981E+02  0.81571428118E+02 0.  0.
       11    1    3    3    0    0  0.52679173850E+01 -0.21136689808E+02  0.51304084801E+02  0.55737058829E+02  0.00000000000E+00 0. -1.
      -12    1    3    3    0    0 -0.52679173850E+01  0.21136689808E+02 -0.21979527527E+02  0.30945278152E+02  0.00000000000E+00 0.  1.
</event>
<event>
 5   0  0.8936300E+00  0.7955579E+02  0.7957747E-01  0.1328763E+00
        1   -1    0    0  501    0  0.00000000000E+00  0.00000000000E+00  0.33513455085E+01  0.33513455085E+01  0.00000000000E+00 0. -1.
       -2   -1    0    0    0  501  0.00000000000E+00  0.00000000000E+00 -0.47213298507E+03  0.47213298507E+03  0.00000000000E+00 0.  1.
      -24    2    1    2    0    0  0.00000000000E+00  0.00000000000E+00 -0.46878163957E+03  0.47548433058E+03  0.79555785684E+02 0.  0.
       11    1    3    3    0    0  0.93167090645E+01 -0.98637979338E+01 -0.10906638687E+02  0.17408341245E+02  0.00000000000E+00 0. -1.
      -12    1    3    3    0    0 -0.93167090645E+01  0.98637979338E+01 -0.45787500088E+03  0.45807598934E+03  0.00000000000E+00 0.  1.
</event>
<event>
 5   0  0.8936300E+00  0.8131297E+02  0.7957747E-01  0.1324073E+00
        1   -1    0    0  501    0  0.00000000000E+00  0.00000000000E+00  0.33120311566E+01  0.33120311566E+01  0.00000000000E+00 0. -1.
       -2   -1    0    0    0  501  0.00000000000E+00  0.00000000000E+00 -0.49907436508E+03  0.49907436508E+03  0.00000000000E+00 0.  1.
      -24    2    1    2    0    0  0.00000000000E+00  0.00000000000E+00 -0.49576233392E+03  0.50238639623E+03  0.81312971821E+02 0.  0.
       11    1    3    3    0    0 -0.28706787259E+02 -0.95677002600E+01 -0.80113297206E+02  0.85637380344E+02  0.00000000000E+00 0. -1.
      -12    1    3    3    0    0  0.28706787259E+02  0.95677002600E+01 -0.41564903671E+03  0.41674901589E+03  0.00000000000E+00 0.  1.
</event>
<event>
 5   0  0.8936300E+00  0.8101440E+02  0.7957747E-01  0.1324861E+00
       -2   -1    0    0    0  501  0.00000000000E+00  0.00000000000E+00  0.52431948663E+01  0.52431948663E+01  0.00000000000E+00 0.  1.
        1   -1    0    0  501    0  0.00000000000E+00  0.00000000000E+00 -0.31294531357E+03  0.31294531357E+03  0.00000000000E+00 0. -1.
      -24    2    1    2    0    0  0.00000000000E+00  0.00000000000E+00 -0.30770211870E+03  0.31818850843E+03  0.81014400240E+02 0.  0.
       11    1    3    3    0    0 -0.25670574714E+02  0.31332373548E+02 -0.15530596920E+03  0.16050121528E+03  0.00000000000E+00 0. -1.
      -12    1    3    3    0    0  0.25670574714E+02 -0.31332373548E+02 -0.15239614951E+03  0.15768729316E+03  0.00000000000E+00 0.  1.
</event>
<event>
 5   0  0.8936300E+00  0.7986557E+02  0.7957747E-01  0.1327927E+00
       -4   -1    0    0    0  501  0.00000000000E+00  0.00000000000E+00  0.79106067195E+01  0.79106067195E+01  0.00000000000E+00 0.  1.
        3   -1    0    0  501    0  0.00000000000E+00  0.00000000000E+00 -0.20158089822E+03  0.20158089822E+03  0.00000000000E+00 0. -1.
      -24    2    1    2    0    0  0.00000000000E+00  0.00000000000E+00 -0.19367029150E+03  0.20949150494E+03  0.79865567248E+02 0.  0.
       11    1    3    3    0    0 -0.20258082724E+02 -0.21951313081E+02 -0.16635230586E+03  0.16901283894E+03  0.00000000000E+00 0. -1.
      -12    1    3    3    0    0  0.20258082724E+02  0.21951313081E+02 -0.27317985640E+02  0.40478665999E+02  0.00000000000E+00 0.  1.
</event>
<event>
 5   0  0.8936300E+00  0.7999400E+02  0.7957747E-01  0.1327581E+00
        1   -1    0    0  501    0  0.00000000000E+00  0.00000000000E+00  0.24599423470E+02  0.24599423470E+02  0.00000000000E+00 0. -1.
       -2   -1    0    0    0  501  0.00000000000E+00  0.00000000000E+00 -0.65032411919E+02  0.65032411919E+02  0.00000000000E+00 0.  1.
      -24    2    1    2    0    0  0.00000000000E+00  0.00000000000E+00 -0.40432988449E+02  0.89631835389E+02  0.79993995776E+02 0.  0.
       11    1    3    3    0    0 -0.14186268769E+02 -0.15341330647E+02  0.17997581274E+02  0.27577519456E+02  0.00000000000E+00 0. -1.
      -12    1    3    3    0    0  0.14186268769E+02  0.15341330647E+02 -0.58430569724E+02  0.62054315933E+02  0.00000000000E+00 0.  1.
</event>
<event>
 5   0  0.8936300E+00  0.7836056E+02  0.7957747E-01  0.1332033E+00
        1   -1    0    0  501    0  0.00000000000E+00  0.00000000000E+00  0.29756724701E+01  0.29756724701E+01  0.00000000000E+00 0. -1.
       -2   -1    0    0    0  501  0.00000000000E+00  0.00000000000E+00 -0.51588149467E+03  0.51588149467E+03  0.00000000000E+00 0.  1.
      -24    2    1    2    0    0  0.00000000000E+00  0.00000000000E+00 -0.51290582220E+03  0.51885716714E+03  0.78360560527E+02 0.  0.
       11    1    3    3    0    0  0.11144317826E+02  0.21369925141E+02 -0.51914138555E+02  0.57235891731E+02  0.00000000000E+00 0. -1.
      -12    1    3    3    0    0 -0.11144317826E+02 -0.21369925141E+02 -0.46099168365E+03  0.46162127541E+03  0.00000000000E+00 0.  1.
</event>
<event>
 5   0  0.8936300E+00  0.8380209E+02  0.7957747E-01  0.1317654E+00
        1   -1    0    0  501    0  0.00000000000E+00  0.00000000000E+00  0.87378781321E+01  0.87378781321E+01  0.00000000000E+00 0. -1.
       -2   -1    0    0    0  501  0.00000000000E+00  0.00000000000E+00 -0.20092949722E+03  0.20092949722E+03  0.00000000000E+00 0.  1.
      -24    2    1    2    0    0  0.00000000000E+00  0.00000000000E+00 -0.19219161909E+03  0.20966737535E+03  0.83802087321E+02 0.  0.
       11    1    3    3    0    0  0.76110795293E+01 -0.15322002185E+02 -0.39867054875E+00  0.17112896329E+02  0.00000000000E+00 0. -1.
      -12    1    3    3    0    0 -0.76110795293E+01  0.15322002185E+02 -0.19179294854E+03  0.19255447902E+03  0.00000000000E+00 0.  1.
</event>
<event>
 5   0  0.8936300E+00  0.7990150E+02  0.7957747E-01  0.1327830E+00
        1   -1    0    0  501    0  0.00000000000E+00  0.00000000000E+00  0.14160434216E+02  0.14160434216E+02  0.00000000000E+00 0. -1.
       -2   -1    0    0    0  501  0.00000000000E+00  0.00000000000E+00 -0.11271281487E+03  0.11271281487E+03  0.00000000000E+00 0.  1.
      -24    2    1    2    0    0  0.00000000000E+00  0.00000000000E+00 -0.98552380657E+02  0.12687324909E+03  0.79901499366E+02 0.  0.
       11    1    3    3    0    0  0.14272339031E+02  0.11358217891E+02  0.71625871950E+01  0.19596209592E+02  0.00000000000E+00 0. -1.
      -12    1    3    3    0    0 -0.14272339031E+02 -0.11358217891E+02 -0.10571496785E+03  0.10727703950E+03  0.00000000000E+00 0.  1.
</event>
<event>
 5   0  0.8936300E+00  0.7889547E+02  0.7957747E-01  0.1330561E+00
        1   -1    0    0  501    0  0.00000000000E+00  0.00000000000E+00  0.11945526243E+03  0.11945526243E+03  0.00000000000E+00 0. -1.
       -2   -1    0    0    0  501  0.00000000000E+00  0.00000000000E+00 -0.13026832033E+02  0.13026832033E+02  0.00000000000E+00 0.  1.
      -24    2    1    2    0    0  0.00000000000E+00  0.00000000000E+00  0.10642843039E+03  0.13248209446E+03  0.78895466005E+02 0.  0.
       11    1    3    3    0    0 -0.22201946615E+02  0.17312333674E+02  0.68157024658E+01  0.28967173332E+02  0.00000000000E+00 0. -1.
      -12    1    3    3    0    0  0.22201946615E+02 -0.17312333674E+02  0.99612727927E+02  0.10351492113E+03  0.00000000000E+00 0.  1.
</event>
<event>
 5   0  0.8936300E+00  0.7798980E+02  0.7957747E-01  0.1333060E+00
        1   -1    0    0  501    0  0.00000000000E+00  0.00000000000E+00  0.56164244683E+02  0.56164244683E+02  0.00000000000E+00 0. -1.
       -2   -1    0    0    0  501  0.00000000000E+00  0.00000000000E+00 -0.27074203324E+02  0.27074203324E+02  0.00000000000E+00 0.  1.
      -24    2    1    2    0    0  0.00000000000E+00  0.00000000000E+00  0.29090041359E+02  0.83238448006E+02  0.77989798822E+02 0.  0.
       11    1    3    3    0    0  0.10138083711E+02 -0.17034992149E+02  0.50385150780E+02  0.54144576072E+02  0.00000000000E+00 0. -1.
      -12    1    3    3    0    0 -0.10138083711E+02  0.17034992149E+02 -0.21295109422E+02  0.29093871934E+02  0.00000000000E+00 0.  1.
</event>
<event>
 5   0  0.8936300E+00  0.8503948E+02  0.7957747E-01  0.1314556E+00
        1   -1    0    0  501    0  0.00000000000E+00  0.00000000000E+00  0.38935429861E+02  0.38935429861E+02  0.00000000000E+00 0. -1.
       -2   -1    0    0    0  501  0.00000000000E+00  0.00000000000E+00 -0.46434016621E+02  0.46434016621E+02  0.00000000000E+00 0.  1.
      -24    2    1    2    0    0  0.00000000000E+00  0.00000000000E+00 -0.74985867592E+01  0.85369446482E+02  0.85039482532E+02 0.  0.
       11    1    3    3    0    0  0.18372993637E+02 -0.14670645503E+02  0.31816036845E+02  0.39560775209E+02  0.00000000000E+00 0. -1.
      -12    1    3    3    0    0 -0.18372993637E+02  0.14670645503E+02 -0.39314623604E+02  0.45808671273E+02  0.00000000000E+00 0.  1.
</event>
<event>
 5   0  0.8936300E+00  0.8303255E+02  0.7957747E-01  0.1319612E+00
        1   -1    0    0  501    0  0.00000000000E+00  0.00000000000E+00  0.30131171290E+02  0.30131171290E+02  0.00000000000E+00 0. -1.
       -2   -1    0    0    0  501  0.00000000000E+00  0.00000000000E+00 -0.57203249572E+02  0.57203249572E+02  0.00000000000E+00 0.  1.
      -24    2    1    2    0    0  0.00000000000E+00  0.00000000000E+00 -0.27072078282E+02  0.87334420862E+02  0.83032545696E+02 0.  0.
       11    1    3    3    0    0  0.99873753964E+01 -0.21957744301E+02  0.22003773082E+02  0.32650516565E+02  0.00000000000E+00 0. -1.
      -12    1    3    3    0    0 -0.99873753964E+01  0.21957744301E+02 -0.49075851364E+02  0.54683904298E+02  0.00000000000E+00 0.  1.
</event>
<event>
 5   0  0.8936300E+00  0.8042132E+02  0.7957747E-01  0.1326436E+00
        1   -1    0    0  501    0  0.00000000000E+00  0.00000000000E+00  0.27508891708E+02  0.27508891708E+02  0.00000000000E+00 0. -1.
       -2   -1    0    0    0  501  0.00000000000E+00  0.00000000000E+00 -0.58777258019E+02  0.58777258019E+02  0.00000000000E+00 0.  1.
      -24    2    1    2    0    0  0.00000000000E+00  0.00000000000E+00 -0.31268366312E+02  0.86286149727E+02  0.80421321196E+02 0.  0.
       11    1    3    3    0    0  0.20642842383E+02 -0.33181884078E+02 -0.54706285479E+01  0.39460006961E+02  0.00000000000E+00 0. -1.
      -12    1    3    3    0    0 -0.20642842383E+02  0.33181884078E+02 -0.25797737764E+02  0.46826142766E+02  0.00000000000E+00 0.  1.
</event>
<event>
 5   0  0.8936300E+00  0.8094905E+02  0.7957747E-01  0.1325033E+00
        1   -1    0    0  501    0  0.00000000000E+00  0.00000000000E+00  0.57157375610E+02  0.57157375610E+02  0.00000000000E+00 0. -1.
       -2   -1    0    0    0  501  0.00000000000E+00  0.00000000000E+00 -0.28660995568E+02  0.28660995568E+02  0.00000000000E+00 0.  1.
      -24    2    1    2    0    0  0.00000000000E+00  0.00000000000E+00  0.28496380042E+02  0.85818371178E+02  0.80949052842E+02 0.  0.
       11    1    3    3    0    0 -0.30188912709E+02 -0.14523741479E+02  0.38327381681E+02  0.50904790577E+02  0.00000000000E+00 0. -1.
      -12    1    3    3    0    0  0.30188912709E+02  0.14523741479E+02 -0.98310016392E+01  0.34913580601E+02  0.00000000000E+00 0.  1.
</event>
<event>
 5   0  0.8936300E+00  0.8263043E+02  0.7957747E-01  0.1320644E+00
        1   -1    0    0  501    0  0.00000000000E+00  0.00000000000E+00  0.12823734612E+03  0.12823734612E+03  0.00000000000E+00 0. -1.
       -2   -1    0    0    0  501  0.00000000000E+00  0.00000000000E+00 -0.13310842254E+02  0.13310842254E+02  0.00000000000E+00 0.  1.
      -24    2    1    2    0    0  0.00000000000E+00  0.00000000000E+00  0.11492650387E+03  0.14154818837E+03  0.82630432293E+02 0.  0.
       11    1    3    3    0    0 -0.34281444310E+01  0.31856857469E+02  0.10214455918E+03  0.10705196174E+03  0.00000000000E+00 0. -1.
      -12    1    3    3    0    0  0.34281444310E+01 -0.31856857469E+02  0.12781944686E+02  0.34496226634E+02  0.00000000000E+00 0.  1.
</event>
<event>
 5   0  0.8936300E+00  0.8118458E+02  0.7957747E-01  0.1324411E+00
        1   -1    0    0  501    0  0.00000000000E+00  0.00000000000E+00  0.54575757494E+02  0.54575757494E+02  0.00000000000E+00 0. -1.
       -2   -1    0    0    0  501  0.00000000000E+00  0.00000000000E+00 -0.30191682642E+02  0.30191682642E+02  0.00000000000E+00 0.  1.
      -24    2    1    2    0    0  0.00000000000E+00  0.00000000000E+00  0.24384074851E+02  0.84767440136E+02  0.81184578590E+02 0.  0.
       11    1    3    3    0    0  0.11022366295E+02  0.19204336346E+01  0.52933984823E+02  0.54103487627E+02  0.00000000000E+00 0. -1.
      -12    1    3    3    0    0 -0.11022366295E+02 -0.19204336346E+01 -0.28549909972E+02  0.30663952510E+02  0.00000000000E+00 0.  1.
</event>
<event>
 5   0  0.8936300E+00  0.8058097E+02  0.7957747E-01  0.1326011E+00
       -2   -1    0    0    0  501  0.00000000000E+00  0.00000000000E+00  0.29984840670E+03  0.29984840670E+03  0.00000000000E+00 0.  1.
        1   -1    0    0  501    0  0.00000000000E+00  0.00000000000E+00 -0.54138124648E+01  0.54138124648E+01  0.00000000000E+00 0. -1.
      -24    2    1    2    0    0  0.00000000000E+00  0.00000000000E+00  0.29443459423E+03  0.30526221916E+03  0.80580966531E+02 0.  0.
       11    1    3    3    0    0 -0.79754778274E+01 -0.18586958504E+02  0.15211558575E+02  0.25307603349E+02  0.00000000000E+00 0. -1.
      -12    1    3    3    0    0  0.79754778274E+01  0.18586958504E+02  0.27922303566E+03  0.27995461581E+03  0.00000000000E+00 0.  1.
</event>
<event>
 5   0  0.8936300E+00  0.7198786E+02  0.7957747E-01  0.1350653E+00
        1   -1    0    0  501    0  0.00000000000E+00  0.00000000000E+00  0.54193160759E+01  0.54193160759E+01  0.00000000000E+00 0. -1.
       -2   -1    0    0    0  501  0.00000000000E+00  0.00000000000E+00 -0.23906391404E+03  0.23906391404E+03  0.00000000000E+00 0.  1.
      -24    2    1    2    0    0  0.00000000000E+00  0.00000000000E+00 -0.23364459796E+03  0.24448323011E+03  0.71987857657E+02 0.  0.
       11    1    3    3    0    0 -0.32854975825E+02  0.11734176952E+02 -0.86746972296E+02  0.93499612554E+02  0.00000000000E+00 0. -1.
      -12    1    3    3    0    0  0.32854975825E+02 -0.11734176952E+02 -0.14689762566E+03  0.15098361756E+03  0.00000000000E+00 0.  1.
</event>
<event>
 5   0  0.8936300E+00  0.8020676E+02  0.7957747E-01  0.1327010E+00
        1   -1    0    0  501    0  0.00000000000E+00  0.00000000000E+00  0.15609346509E+02  0.15609346509E+02  0.00000000000E+00 0. -1.
       -2   -1    0    0    0  501  0.00000000000E+00  0.00000000000E+00 -0.10303321684E+03  0.10303321684E+03  0.00000000000E+00 0.  1.
      -24    2    1    2    0    0  0.00000000000E+00  0.00000000000E+00 -0.87423870329E+02  0.11864256335E+03  0.80206762397E+02 0.  0.
       11    1    3    3    0    0 -0.31807280901E+02  0.21787977931E+02 -0.27382775570E+02  0.47288851737E+02  0.00000000000E+00 0. -1.
      -12    1    3    3    0    0  0.31807280901E+02 -0.21787977931E+02 -0.60041094759E+02  0.71353711610E+02  0.00000000000E+00 0.  1.
</event>
<event>
 5   0  0.8936300E+00  0.7900915E+02  0.7957747E-01  0.1330250E+00
        1   -1    0    0  501    0  0.00000000000E+00  0.00000000000E+00  0.72081433367E+01  0.72081433367E+01  0.00000000000E+00 0. -1.
       -2   -1    0    0    0  501  0.00000000000E+00  0.00000000000E+00 -0.21650671573E+03  0.21650671573E+03  0.00000000000E+00 0.  1.
      -24    2    1    2    0    0  0.00000000000E+00  0.00000000000E+00 -0.20929857240E+03  0.22371485907E+03  0.79009149859E+02 0.  0.
       11    1    3    3    0    0 -0.28195074604E+02 -0.26757564521E+02 -0.12460727414E+03  0.13052931571E+03  0.00000000000E+00 0. -1.
      -12    1    3    3    0    0  0.28195074604E+02  0.26757564521E+02 -0.84691298255E+02  0.93185543359E+02  0.00000000000E+00 0.  1.
</event>
<event>
 5   0  0.8936300E+00  0.8670284E+02  0.7957747E-01  0.1310485E+00
        1   -1    0    0  501    0  0.00000000000E+00  0.00000000000E+00  0.17882738556E+02  0.17882738556E+02  0.00000000000E+00 0. -1.
       -2   -1    0    0    0  501  0.00000000000E+00  0.00000000000E+00 -0.10509271302E+03  0.10509271302E+03  0.00000000000E+00 0.  1.
      -24    2    1    2    0    0  0.00000000000E+00  0.00000000000E+00 -0.87209974469E+02  0.12297545158E+03  0.86702837581E+02 0.  0.
       11    1    3    3    0    0  0.28253504726E+02  0.23372739703E+02 -0.10804460158E+02  0.38226716441E+02  0.00000000000E+00 0. -1.
      -12    1    3    3    0    0 -0.28253504726E+02 -0.23372739703E+02 -0.76405514311E+02  0.84748735140E+02  0.00000000000E+00 0.  1.
</event>
<event>
 5   0  0.8936300E+00  0.7997435E+02  0.7957747E-01  0.1327634E+00
        1   -1    0    0  501    0  0.00000000000E+00  0.00000000000E+00  0.29901333415E+01  0.29901333415E+01  0.00000000000E+00 0. -1.
       -2   -1    0    0    0  501  0.00000000000E+00  0.00000000000E+00 -0.53475006229E+03  0.53475006229E+03  0.00000000000E+00 0.  1.
      -24    2    1    2    0    0  0.00000000000E+00  0.00000000000E+00 -0.53175992895E+03  0.53774019563E+03  0.79974345653E+02 0.  0.
       11    1    3    3    0    0 -0.11791409521E+02  0.17894105643E+02 -0.38880804455E+02  0.44395419925E+02  0.00000000000E+00 0. -1.
      -12    1    3    3    0    0  0.11791409521E+02 -0.17894105643E+02 -0.49287912450E+03  0.49334477571E+03  0.00000000000E+00 0.  1.
</event>
<event>
 5   0  0.8936300E+00  0.7898227E+02  0.7957747E-01  0.1330324E+00
        1   -1    0    0  501    0  0.00000000000E+00  0.00000000000E+00  0.93918730339E+01  0.93918730339E+01  0.00000000000E+00 0. -1.
       -2   -1    0    0    0  501  0.00000000000E+00  0.00000000000E+00 -0.16605312417E+03  0.16605312417E+03  0.00000000000E+00 0.  1.
      -24    2    1    2    0    0  0.00000000000E+00  0.00000000000E+00 -0.15666125114E+03  0.17544499721E+03  0.78982272926E+02 0.  0.
       11    1    3    3    0    0  0.11644245311E+02  0.27002529048E+02 -0.19777642215E+02  0.35438399449E+02  0.00000000000E+00 0. -1.
      -12    1    3    3    0    0 -0.11644245311E+02 -0.27002529048E+02 -0.13688360893E+03  0.14000659776E+03  0.00000000000E+00 0.  1.
</event>
<event>
 5   0  0.8936300E+00  0.8967616E+02  0.7957747E-01  0.1303457E+00
        1   -1    0    0  501    0  0.00000000000E+00  0.00000000000E+00  0.10062580524E+02  0.10062580524E+02  0.00000000000E+00 0. -1.
       -2   -1    0    0    0  501  0.00000000000E+00  0.00000000000E+00 -0.19979501309E+03  0.19979501309E+03  0.00000000000E+00 0.  1.
      -24    2    1    2    0    0  0.00000000000E+00  0.00000000000E+00 -0.18973243256E+03  0.20985759361E+03  0.89676159764E+02 0.  0.
       11    1    3    3    0    0  0.16340080768E+02  0.41227440305E+02 -0.79386846972E+02  0.90933885575E+02  0.00000000000E+00 0. -1.
      -12    1    3    3    0    0 -0.16340080768E+02 -0.41227440305E+02 -0.11034558559E+03  0.11892370804E+03  0.00000000000E+00 0.  1.
</event>
<event>
 5   0  0.8936300E+00  0.8276258E+02  0.7957747E-01  0.1320304E+00
        1   -1    0    0  501    0  0.00000000000E+00  0.00000000000E+00  0.76804254253E+01  0.76804254253E+01  0.00000000000E+00 0. -1.
       -2   -1    0    0    0  501  0.00000000000E+00  0.00000000000E+00 -0.22295786943E+03  0.22295786943E+03  0.00000000000E+00 0.  1.
      -24    2    1    2    0    0  0.00000000000E+00  0.00000000000E+00 -0.21527744400E+03  0.23063829486E+03  0.82762583071E+02 0.  0.
       11    1    3    3    0    0  0.27403880516E+02 -0.25581623411E+02 -0.58809463965E+02  0.69741990046E+02  0.00000000000E+00 0. -1.
      -12    1    3    3    0    0 -0.27403880516E+02  0.25581623411E+02 -0.15646798004E+03  0.16089630481E+03  0.00000000000E+00 0.  1.
</event>
<event>
 5   0  0.8936300E+00  0.8068415E+02  0.7957747E-01  0.1325736E+00
       -2   -1    0    0    0  501  0.00000000000E+00  0.00000000000E+00  0.97234446322E+01  0.97234446322E+01  0.00000000000E+00 0.  1.
        1   -1    0    0  501    0  0.00000000000E+00  0.00000000000E+00 -0.16737719208E+03  0.16737719208E+03  0.00000000000E+00 0. -1.
      -24    2    1    2    0    0  0.00000000000E+00  0.00000000000E+00 -0.15765374745E+03  0.17710063671E+03  0.80684146147E+02 0.  0.
       11    1    3    3    0    0 -0.31288921690E+02 -0.53959354087E+01 -0.13345383470E+03  0.13717885673E+03  0.00000000000E+00 0. -1.
      -12    1    3    3    0    0  0.31288921690E+02  0.53959354087E+01 -0.24199912749E+02  0.39921779977E+02  0.00000000000E+00 0.  1.
</event>
<event>
 5   0  0.8936300E+00  0.8083235E+02  0.7957747E-01  0.1325343E+00
       -2   -1    0    0    0  501  0.00000000000E+00  0.00000000000E+00  0.16797593798E+02  0.16797593798E+02  0.00000000000E+00 0.  1.
        1   -1    0    0  501    0  0.00000000000E+00  0.00000000000E+00 -0.97244121048E+02  0.97244121048E+02  0.00000000000E+00 0. -1.
      -24    2    1    2    0    0  0.00000000000E+00  0.00000000000E+00 -0.80446527251E+02  0.11404171485E+03  0.80832351062E+02 0.  0.
       11    1    3    3    0    0 -0.30547316784E+02  0.15422431659E+02 -0.70563833325E+02  0.78423494786E+02  0.00000000000E+00 0. -1.
      -12    1    3    3    0    0  0.30547316784E+02 -0.15422431659E+02 -0.98826939260E+01  0.35618220060E+02  0.00000000000E+00 0.  1.
</event>
<event>
 5   0  0.8936300E+00  0.7810438E+02  0.7957747E-01  0.1332742E+00
        1   -1    0    0  501    0  0.00000000000E+00  0.00000000000E+00  0.87858200728E+01  0.87858200728E+01  0.00000000000E+00 0. -1.
       -2   -1    0    0    0  501  0.00000000000E+00  0.00000000000E+00 -0.17358352763E+03  0.17358352763E+03  0.00000000000E+00 0.  1.
      -24    2    1    2    0    0  0.00000000000E+00  0.00000000000E+00 -0.16479770756E+03  0.18236934771E+03  0.78104382499E+02 0.  0.
       11    1    3    3    0    0  0.28308001308E+02  0.25340555195E+02 -0.61308355885E+02  0.72126286311E+02  0.00000000000E+00 0. -1.
      -12    1    3    3    0    0 -0.28308001308E+02 -0.25340555195E+02 -0.10348935168E+03  0.11024306140E+03  0.00000000000E+00 0.  1.
</event>
<event>
 5   0  0.8936300E+00  0.7359620E+02  0.7957747E-01  0.1345753E+00
        1   -1    0    0  501    0  0.00000000000E+00  0.00000000000E+00  0.26638805188E+02  0.26638805188E+02  0.00000000000E+00 0. -1.
       -2   -1    0    0    0  501  0.00000000000E+00  0.00000000000E+00 -0.50831862303E+02  0.50831862303E+02  0.00000000000E+00 0.  1.
      -24    2    1    2    0    0  0.00000000000E+00  0.00000000000E+00 -0.24193057115E+02  0.77470667491E+02  0.73596197653E+02 0.  0.
       11    1    3    3    0    0  0.35916695353E+02 -0.39480705621E+01 -0.19427640521E+02  0.41024742320E+02  0.00000000000E+00 0. -1.
      -12    1    3    3    0    0 -0.35916695353E+02  0.39480705621E+01 -0.47654165932E+01  0.36445925171E+02  0.00000000000E+00 0.  1.
</event>
<event>
 5   0  0.8936300E+00  0.8053115E+02  0.7957747E-01  0.1326143E+00
        1   -1    0    0  501    0  0.00000000000E+00  0.00000000000E+00  0.81636080674E+01  0.81636080674E+01  0.00000000000E+00 0. -1.
       -2   -1    0    0    0  501  0.00000000000E+00  0.00000000000E+00 -0.19860292068E+03  0.19860292068E+03  0.00000000000E+00 0.  1.
      -24    2    1    2    0    0  0.00000000000E+00  0.00000000000E+00 -0.19043931261E+03  0.20676652875E+03  0.80531146905E+02 0.  0.
       11    1    3    3    0    0 -0.16542191697E+02 -0.25342572602E+02 -0.27026282052E+02  0.40574746010E+02  0.00000000000E+00 0. -1.
      -12    1    3    3    0    0  0.16542191697E+02  0.25342572602E+02 -0.16341303056E+03  0.16619178274E+03  0.00000000000E+00 0.  1.
</event>
<event>
 5   0  0.8936300E+00  0.7818230E+02  0.7957747E-01  0.1332526E+00
        1   -1    0    0  501    0  0.00000000000E+00  0.00000000000E+00  0.25080998774E+02  0.25080998774E+02  0.00000000000E+00 0. -1.
       -2   -1    0    0    0  501  0.00000000000E+00  0.00000000000E+00 -0.60927324558E+02  0.60927324558E+02  0.00000000000E+00 0.  1.
      -24    2    1    2    0    0  0.00000000000E+00  0.00000000000E+00 -0.35846325784E+02  0.86008323332E+02  0.78182303690E+02 0.  0.
       11    1    3    3    0    0  0.22388927639E+01 -0.36234833607E+02 -0.19758026120E+01  0.36357662236E+02  0.00000000000E+00 0. -1.
      -12    1    3    3    0    0 -0.22388927639E+01  0.36234833607E+02 -0.33870523172E+02  0.49650661096E+02  0.00000000000E+00 0.  1.
</event>
<event>
 5   0  0.8936300E+00  0.8186024E+02  0.7957747E-01  0.1322640E+00
        1   -1    0    0  501    0  0.00000000000E+00  0.00000000000E+00  0.18843972974E+02  0.18843972974E+02  0.00000000000E+00 0. -1.
       -2   -1    0    0    0  501  0.00000000000E+00  0.00000000000E+00 -0.88902425236E+02  0.88902425236E+02  0.00000000000E+00 0.  1.
      -24    2    1    2    0    0  0.00000000000E+00  0.00000000000E+00 -0.70058452262E+02  0.10774639821E+03  0.81860244282E+02 0.  0.
       11    1    3    3    0    0  0.13313774418E+02  0.69938116656E+01  0.15075609138E+02  0.21294224141E+02  0.00000000000E+00 0. -1.
      -12    1    3    3    0    0 -0.13313774418E+02 -0.69938116656E+01 -0.85134061400E+02  0.86452174069E+02  0.00000000000E+00 0.  1.
</event>
<event>
 5   0  0.8936300E+00  0.7978747E+02  0.7957747E-01  0.1328137E+00
        1   -1    0    0  501    0  0.00000000000E+00  0.00000000000E+00  0.42281205677E+01  0.42281205677E+01  0.00000000000E+00 0. -1.
       -2   -1    0    0    0  501  0.00000000000E+00  0.00000000000E+00 -0.37641072650E+03  0.37641072650E+03  0.00000000000E+00 0.  1.
      -24    2    1    2    0    0  0.00000000000E+00  0.00000000000E+00 -0.37218260594E+03  0.38063884707E+03  0.79787466049E+02 0.  0.
       11    1    3    3    0    0 -0.26322720253E+02  0.29928627238E+02 -0.19421769112E+03  0.19826527652E+03  0.00000000000E+00 0. -1.
      -12    1    3    3    0    0  0.26322720253E+02 -0.29928627238E+02 -0.17796491482E+03  0.18237357055E+03  0.00000000000E+00 0.  1.
</event>
<event>
 5   0  0.8936300E+00  0.7550558E+02  0.7957747E-01  0.1340117E+00
        1   -1    0    0  501    0  0.00000000000E+00  0.00000000000E+00  0.34065682466E+03  0.34065682466E+03  0.00000000000E+00 0. -1.
       -2   -1    0    0    0  501  0.00000000000E+00  0.00000000000E+00 -0.41838975996E+01  0.41838975996E+01  0.00000000000E+00 0.  1.
      -24    2    1    2    0    0  0.00000000000E+00  0.00000000000E+00  0.33647292706E+03  0.34484072226E+03  0.75505583131E+02 0.  0.
       11    1    3    3    0    0 -0.16626743750E+02 -0.31548705437E+02  0.11165175097E+03  0.11720871519E+03  0.00000000000E+00 0. -1.
      -12    1    3    3    0    0  0.16626743750E+02  0.31548705437E+02  0.22482117610E+03  0.22763200707E+03  0.00000000000E+00 0.  1.
</event>
<event>
 5   0  0.8936300E+00  0.8089874E+02  0.7957747E-01  0.1325167E+00
        1   -1    0    0  501    0  0.00000000000E+00  0.00000000000E+00  0.13084166741E+02  0.13084166741E+02  0.00000000000E+00 0. -1.
       -2   -1    0    0    0  501  0.00000000000E+00  0.00000000000E+00 -0.12504821219E+03  0.12504821219E+03  0.00000000000E+00 0.  1.
      -24    2    1    2    0    0  0.00000000000E+00  0.00000000000E+00 -0.11196404544E+03  0.13813237893E+03  0.80898743104E+02 0.  0.
       11    1    3    3    0    0 -0.99184246548E+01 -0.26669862910E+02 -0.68941951525E+01  0.29277750291E+02  0.00000000000E+00 0. -1.
      -12    1    3    3    0    0  0.99184246548E+01  0.26669862910E+02 -0.10506985029E+03  0.10885462864E+03  0.00000000000E+00 0.  1.
</event>
<event>
 5   0  0.8936300E+00  0.8626137E+02  0.7957747E-01  0.1311555E+00
       -2   -1    0    0    0  501  0.00000000000E+00  0.00000000000E+00  0.22425595417E+02  0.22425595417E+02  0.00000000000E+00 0.  1.
        1   -1    0    0  501    0  0.00000000000E+00  0.00000000000E+00 -0.82952352260E+02  0.82952352260E+02  0.00000000000E+00 0. -1.
      -24    2    1    2    0    0  0.00000000000E+00  0.00000000000E+00 -0.60526756843E+02  0.10537794768E+03  0.86261367729E+02 0.  0.
       11    1    3    3    0    0  0.75294718561E+01 -0.23821307215E+02  0.12686471599E+02  0.28019532214E+02  0.00000000000E+00 0. -1.
      -12    1    3    3    0    0 -0.75294718561E+01  0.23821307215E+02 -0.73213228443E+02  0.77358415462E+02  0.00000000000E+00 0.  1.
</event>
<event>
 5   0  0.8936300E+00  0.7942137E+02  0.7957747E-01  0.1329128E+00
        1   -1    0    0  501    0  0.00000000000E+00  0.00000000000E+00  0.77455658979E+02  0.77455658979E+02  0.00000000000E+00 0. -1.
       -2   -1    0    0    0  501  0.00000000000E+00  0.00000000000E+00 -0.20359241972E+02  0.20359241972E+02  0.00000000000E+00 0.  1.
      -24    2    1    2    0    0  0.00000000000E+00  0.00000000000E+00  0.57096417007E+02  0.97814900951E+02  0.79421370003E+02 0.  0.
       11    1    3    3    0    0 -0.20215009288E+02 -0.31724554906E+02  0.44216319627E+02  0.58053224767E+02  0.00000000000E+00 0. -1.
      -12    1    3    3    0    0  0.20215009288E+02  0.31724554906E+02  0.12880097380E+02  0.39761676185E+02  0.00000000000E+00 0.  1.
</event>
<event>
 5   0  0.8936300E+00  0.8084519E+02  0.7957747E-01  0.1325309E+00
        1   -1    0    0  501    0  0.00000000000E+00  0.00000000000E+00  0.43848874854E+02  0.43848874854E+02  0.00000000000E+00 0. -1.
       -2   -1    0    0    0  501  0.00000000000E+00  0.00000000000E+00 -0.37264043403E+02  0.37264043403E+02  0.00000000000E+00 0.  1.
      -24    2    1    2    0    0  0.00000000000E+00  0.00000000000E+00  0.65848314511E+01  0.81112918257E+02  0.80845194680E+02 0.  0.
       11    1    3    3    0    0 -0.27358670596E+02  0.81707662632E+01  0.32000595880E+02  0.42887019188E+02  0.00000000000E+00 0. -1.
      -12    1    3    3    0    0  0.27358670596E+02 -0.81707662632E+01 -0.25415764429E+02  0.38225899069E+02  0.00000000000E+00 0.  1.
</event>
<event>
 5   0  0.8936300E+00  0.8230596E+02  0.7957747E-01  0.1321482E+00
        1   -1    0    0  501    0  0.00000000000E+00  0.00000000000E+00  0.10781801931E+02  0.10781801931E+02  0.00000000000E+00 0. -1.
       -2   -1    0    0    0  501  0.00000000000E+00  0.00000000000E+00 -0.15707650677E+03  0.15707650677E+03  0.00000000000E+00 0.  1.
      -24    2    1    2    0    0  0.00000000000E+00  0.00000000000E+00 -0.14629470484E+03  0.16785830870E+03  0.82305960514E+02 0.  0.
       11    1    3    3    0    0  0.59938107161E+01  0.13209338785E+02  0.53951767600E+01  0.15476444369E+02  0.00000000000E+00 0. -1.
      -12    1    3    3    0    0 -0.59938107161E+01 -0.13209338785E+02 -0.15168988160E+03  0.15238186433E+03  0.00000000000E+00 0.  1.
</event>
<event>
 5   0  0.8936300E+00  0.7853443E+02  0.7957747E-01  0.1331553E+00
        1   -1    0    0  501    0  0.00000000000E+00  0.00000000000E+00  0.10689472760E+02  0.10689472760E+02  0.00000000000E+00 0. -1.
       -2   -1    0    0    0  501  0.00000000000E+00  0.00000000000E+00 -0.14424605794E+03  0.14424605794E+03  0.00000000000E+00 0.  1.
      -24    2    1    2    0    0  0.00000000000E+00  0.00000000000E+00 -0.13355658518E+03  0.15493553070E+03  0.78534433394E+02 0.  0.
       11    1    3    3    0    0 -0.28532512991E+02  0.21841255101E+02 -0.35537047062E+02  0.50537376623E+02  0.00000000000E+00 0. -1.
      -12    1    3    3    0    0  0.28532512991E+02 -0.21841255101E+02 -0.98019538122E+02  0.10439815408E+03  0.00000000000E+00 0.  1.
</event>
<event>
 5   0  0.8936300E+00  0.8518520E+02  0.7957747E-01  0.1314195E+00
       -2   -1    0    0    0  501  0.00000000000E+00  0.00000000000E+00  0.21036370050E+02  0.21036370050E+02  0.00000000000E+00 0.  1.
        1   -1    0    0  501    0  0.00000000000E+00  0.00000000000E+00 -0.86237768476E+02  0.86237768476E+02  0.00000000000E+00 0. -1.
      -24    2    1    2    0    0  0.00000000000E+00  0.00000000000E+00 -0.65201398426E+02  0.10727413853E+03  0.85185200826E+02 0.  0.
       11    1    3    3    0    0  0.11521108512E+02 -0.40820874200E+02 -0.37486071494E+02  0.56606406597E+02  0.00000000000E+00 0. -1.
      -12    1    3    3    0    0 -0.11521108512E+02  0.40820874200E+02 -0.27715326933E+02  0.50667731929E+02  0.00000000000E+00 0.  1.
</event>
<event>
 5   0  0.8936300E+00  0.8090996E+02  0.7957747E-01  0.1325137E+00
        1   -1    0    0  501    0  0.00000000000E+00  0.00000000000E+00  0.14762261284E+02  0.14762261284E+02  0.00000000000E+00 0. -1.
       -2   -1    0    0    0  501  0.00000000000E+00  0.00000000000E+00 -0.11086413654E+03  0.11086413654E+03  0.00000000000E+00 0.  1.
      -24    2    1    2    0    0  0.00000000000E+00  0.00000000000E+00 -0.96101875260E+02  0.12562639783E+03  0.80909958611E+02 0.  0.
       11    1    3    3    0    0 -0.16940075159E+02  0.54725738577E+01  0.83537130577E+01  0.19664682374E+02  0.00000000000E+00 0. -1.
      -12    1    3    3    0    0  0.16940075159E+02 -0.54725738577E+01 -0.10445558832E+03  0.10596171545E+03  0.00000000000E+00 0.  1.
</event>
<event>
 5   0  0.8936300E+00  0.7720948E+02  0.7957747E-01  0.1335244E+00
        1   -1    0    0  501    0  0.00000000000E+00  0.00000000000E+00  0.92120646952E+01  0.92120646952E+01  0.00000000000E+00 0. -1.
       -2   -1    0    0    0  501  0.00000000000E+00  0.00000000000E+00 -0.16177979179E+03  0.16177979179E+03  0.00000000000E+00 0.  1.
      -24    2    1    2    0    0  0.00000000000E+00  0.00000000000E+00 -0.15256772710E+03  0.17099185649E+03  0.77209478909E+02 0.  0.
       11    1    3    3    0    0  0.25826148125E+02 -0.24614619917E+02 -0.43625759318E+02  0.56356688305E+02  0.00000000000E+00 0. -1.
      -12    1    3    3    0    0 -0.25826148125E+02  0.24614619917E+02 -0.10894196778E+03  0.11463516818E+03  0.00000000000E+00 0.  1.
</event>
<event>
 5   0  0.8936300E+00  0.7959131E+02  0.7957747E-01  0.1328667E+00
        1   -1    0    0  501    0  0.00000000000E+00  0.00000000000E+00  0.64682583139E+01  0.64682583139E+01  0.00000000000E+00 0. -1.
       -2   -1    0    0    0  501  0.00000000000E+00  0.00000000000E+00 -0.24484091364E+03  0.24484091364E+03  0.00000000000E+00 0.  1.
      -24    2    1    2    0    0  0.00000000000E+00  0.00000000000E+00 -0.23837265532E+03  0.25130917195E+03  0.79591312973E+02 0.  0.
       11    1    3    3    0    0 -0.18535815703E+02  0.36535654305E+01 -0.85942251743E+01  0.20755377869E+02  0.00000000000E+00 0. -1.
      -12    1    3    3    0    0  0.18535815703E+02 -0.36535654305E+01 -0.22977843015E+03  0.23055379408E+03  0.00000000000E+00 0.  1.
</event>
<event>
 5   0  0.8936300E+00  0.8030555E+02  0.7957747E-01  0.1326746E+00
        1   -1    0    0  501    0  0.00000000000E+00  0.00000000000E+00  0.15297930119E+02  0.15297930119E+02  0.00000000000E+00 0. -1.
       -2   -1    0    0    0  501  0.00000000000E+00  0.00000000000E+00 -0.10538977541E+03  0.10538977541E+03  0.00000000000E+00 0.  1.
      -24    2    1    2    0    0  0.00000000000E+00  0.00000000000E+00 -0.90091845288E+02  0.12068770553E+03  0.80305551974E+02 0.  0.
       11    1    3    3    0    0  0.30601183392E+02  0.23539219571E+02 -0.28465518720E+02  0.47966791002E+02  0.00000000000E+00 0. -1.
      -12    1    3    3    0    0 -0.30601183392E+02 -0.23539219571E+02 -0.61626326568E+02  0.72720914525E+02  0.00000000000E+00 0.  1.
</event>
<event>
 5   0  0.8936300E+00  0.8482357E+02  0.7957747E-01  0.1315093E+00
        1   -1    0    0  501    0  0.00000000000E+00  0.00000000000E+00  0.58884817823E+01  0.58884817823E+01  0.00000000000E+00 0. -1.
       -2   -1    0    0    0  501  0.00000000000E+00  0.00000000000E+00 -0.30547083117E+03  0.30547083117E+03  0.00000000000E+00 0.  1.
      -24    2    1    2    0    0  0.00000000000E+00  0.00000000000E+00 -0.29958234939E+03  0.31135931295E+03  0.84823568054E+02 0.  0.
       11    1    3    3    0    0 -0.14069776540E+02 -0.65637406757E+01 -0.49174054672E+01  0.16285643373E+02  0.00000000000E+00 0. -1.
      -12    1    3    3    0    0  0.14069776540E+02  0.65637406757E+01 -0.29466494392E+03  0.29507366958E+03  0.00000000000E+00 0.  1.
</event>
<event>
 5   0  0.8936300E+00  0.8295284E+02  0.7957747E-01  0.1319816E+00
        1   -1    0    0  501    0  0.00000000000E+00  0.00000000000E+00  0.29051092171E+02  0.29051092171E+02  0.00000000000E+00 0. -1.
       -2   -1    0    0    0  501  0.00000000000E+00  0.00000000000E+00 -0.59216130418E+02  0.59216130418E+02  0.00000000000E+00 0.  1.
      -24    2    1    2    0    0  0.00000000000E+00  0.00000000000E+00 -0.30165038247E+02  0.88267222589E+02  0.82952836306E+02 0.  0.
       11    1    3    3    0    0 -0.11451658314E+02 -0.21589967028E+02  0.20575987245E+02  0.31947431908E+02  0.00000000000E+00 0. -1.
      -12    1    3    3    0    0  0.11451658314E+02  0.21589967028E+02 -0.50741025492E+02  0.56319790681E+02  0.00000000000E+00 0.  1.
</event>
<event>
 5   0  0.8936300E+00  0.8060603E+02  0.7957747E-01  0.1325944E+00
        1   -1    0    0  501    0  0.00000000000E+00  0.00000000000E+00  0.88542016083E+01  0.88542016083E+01  0.00000000000E+00 0. -1.
       -2   -1    0    0    0  501  0.00000000000E+00  0.00000000000E+00 -0.18345334646E+03  0.18345334646E+03  0.00000000000E+00 0.  1.
      -24    2    1    2    0    0  0.00000000000E+00  0.00000000000E+00 -0.17459914485E+03  0.19230754807E+03  0.80606027448E+02 0.  0.
       11    1    3    3    0    0 -0.14513373403E+02  0.33080306478E+02 -0.44662412646E+02  0.57442804490E+02  0.00000000000E+00 0. -1.
      -12    1    3    3    0    0  0.14513373403E+02 -0.33080306478E+02 -0.12993673220E+03  0.13486474358E+03  0.00000000000E+00 0.  1.
</event>
<event>
 5   0  0.8936300E+00  0.7905746E+02  0.7957747E-01  0.1330118E+00
        3   -1    0    0  501    0  0.00000000000E+00  0.00000000000E+00  0.38770325663E+02  0.38770325663E+02  0.00000000000E+00 0. -1.
       -4   -1    0    0    0  501  0.00000000000E+00  0.00000000000E+00 -0.40301967108E+02  0.40301967108E+02  0.00000000000E+00 0.  1.
      -24    2    1    2    0    0  0.00000000000E+00  0.00000000000E+00 -0.15316414452E+01  0.79072292771E+02  0.79057457324E+02 0.  0.
       11    1    3    3    0    0  0.33151974166E+02  0.21399691754E+02 -0.31157703691E+01  0.39581665241E+02  0.00000000000E+00 0. -1.
      -12    1    3    3    0    0 -0.33151974166E+02 -0.21399691754E+02  0.15841289240E+01  0.39490627530E+02  0.00000000000E+00 0.  1.
</event>
<event>
 5   0  0.8936300E+00  0.8299819E+02  0.7957747E-01  0.1319700E+00
        1   -1    0    0  501    0  0.00000000000E+00  0.00000000000E+00  0.21505504198E+02  0.21505504198E+02  0.00000000000E+00 0. -1.
       -2   -1    0    0    0  501  0.00000000000E+00  0.00000000000E+00 -0.80080650876E+02  0.80080650876E+02  0.00000000000E+00 0.  1.
      -24    2    1    2    0    0  0.00000000000E+00  0.00000000000E+00 -0.58575146678E+02  0.10158615507E+03  0.82998187295E+02 0.  0.
       11    1    3    3    0    0 -0.24374666070E+02  0.11521012089E+02  0.93265840957E+01  0.28527937824E+02  0.00000000000E+00 0. -1.
      -12    1    3    3    0    0  0.24374666070E+02 -0.11521012089E+02 -0.67901730774E+02  0.73058217249E+02  0.00000000000E+00 0.  1.
</event>
<event>
 5   0  0.8936300E+00  0.7992051E+02  0.7957747E-01  0.1327779E+00
        1   -1    0    0  501    0  0.00000000000E+00  0.00000000000E+00  0.72904769194E+01  0.72904769194E+01  0.00000000000E+00 0. -1.
       -2   -1    0    0    0  501  0.00000000000E+00  0.00000000000E+00 -0.21902848010E+03  0.21902848010E+03  0.00000000000E+00 0.  1.
      -24    2    1    2    0    0  0.00000000000E+00  0.00000000000E+00 -0.21173800318E+03  0.22631895702E+03  0.79920512481E+02 0.  0.
       11    1    3    3    0    0 -0.39329241353E+02 -0.70677118523E+01 -0.10506653397E+03  0.11240871113E+03  0.00000000000E+00 0. -1.
      -12    1    3    3    0    0  0.39329241353E+02  0.70677118523E+01 -0.10667146920E+03  0.11391024589E+03  0.00000000000E+00 0.  1.
</event>
<event>
 5   0  0.8936300E+00  0.8008588E+02  0.7957747E-01  0.1327334E+00
        1   -1    0    0  501    0  0.00000000000E+00  0.00000000000E+00  0.10824827477E+03  0.10824827477E+03  0.00000000000E+00 0. -1.
       -2   -1    0    0    0  501  0.00000000000E+00  0.00000000000E+00 -0.14812587313E+02  0.14812587313E+02  0.00000000000E+00 0.  1.
      -24    2    1    2    0    0  0.00000000000E+00  0.00000000000E+00  0.93435687452E+02  0.12306086208E+03  0.80085879440E+02 0.  0.
       11    1    3    3    0    0  0.17067777025E+02 -0.13969777890E+02  0.98073159374E+02  0.10052267553E+03  0.00000000000E+00 0. -1.
      -12    1    3    3    0    0 -0.17067777025E+02  0.13969777890E+02 -0.46374719218E+01  0.22538186544E+02  0.00000000000E+00 0.  1.
</event>
<event>
 5   0  0.8936300E+00  0.7878488E+02  0.7957747E-01  0.1330864E+00
        1   -1    0    0  501    0  0.00000000000E+00  0.00000000000E+00  0.48113456182E+02  0.48113456182E+02  0.00000000000E+00 0. -1.
       -2   -1    0    0    0  501  0.00000000000E+00  0.00000000000E+00 -0.32252189066E+02  0.32252189066E+02  0.00000000000E+00 0.  1.
      -24    2    1    2    0    0  0.00000000000E+00  0.00000000000E+00  0.15861267116E+02  0.80365645249E+02  0.78784878890E+02 0.  0.
       11    1    3    3    0    0  0.38392907642E+02 -0.53515406571E+00  0.16908505909E+02  0.41954729402E+02  0.00000000000E+00 0. -1.
      -12    1    3    3    0    0 -0.38392907642E+02  0.53515406571E+00 -0.10472387929E+01  0.38410915847E+02  0.00000000000E+00 0.  1.
</event>
<event>
 5   0  0.8936300E+00  0.7013271E+02  0.7957747E-01  0.1356490E+00
        1   -1    0    0  501    0  0.00000000000E+00  0.00000000000E+00  0.23900394026E+01  0.23900394026E+01  0.00000000000E+00 0. -1.
       -2   -1    0    0    0  501  0.00000000000E+00  0.00000000000E+00 -0.51448908582E+03  0.51448908582E+03  0.00000000000E+00 0.  1.
      -24    2    1    2    0    0  0.00000000000E+00  0.00000000000E+00 -0.51209904642E+03  0.51687912523E+03  0.70132708127E+02 0.  0.
       11    1    3    3    0    0  0.80780842896E+01 -0.66729417804E+01 -0.94164390213E+01  0.14087331956E+02  0.00000000000E+00 0. -1.
      -12    1    3    3    0    0 -0.80780842896E+01  0.66729417804E+01 -0.50268260740E+03  0.50279179327E+03  0.00000000000E+00 0.  1.
</event>
<event>
 5   0  0.8936300E+00  0.8700558E+02  0.7957747E-01  0.1309755E+00
        1   -1    0    0  501    0  0.00000000000E+00  0.00000000000E+00  0.37290837987E+02  0.37290837987E+02  0.00000000000E+00 0. -1.
       -2   -1    0    0    0  501  0.00000000000E+00  0.00000000000E+00 -0.50749532521E+02  0.50749532521E+02  0.00000000000E+00 0.  1.
      -24    2    1    2    0    0  0.00000000000E+00  0.00000000000E+00 -0.13458694534E+02  0.88040370507E+02  0.87005576721E+02 0.  0.
       11    1    3    3    0    0 -0.30662516607E+02  0.33569148120E+01  0.24311772629E+02  0.39274942267E+02  0.00000000000E+00 0. -1.
      -12    1    3    3    0    0  0.30662516607E+02 -0.33569148120E+01 -0.37770467163E+02  0.48765428240E+02  0.00000000000E+00 0.  1.
</event>
<event>
 5   0  0.8936300E+00  0.8069739E+02  0.7957747E-01  0.1325701E+00
        1   -1    0    0  501    0  0.00000000000E+00  0.00000000000E+00  0.21876477135E+02  0.21876477135E+02  0.00000000000E+00 0. -1.
       -2   -1    0    0    0  501  0.00000000000E+00  0.00000000000E+00 -0.74418608917E+02  0.74418608917E+02  0.00000000000E+00 0.  1.
      -24    2    1    2    0    0  0.00000000000E+00  0.00000000000E+00 -0.52542131782E+02  0.96295086052E+02  0.80697385246E+02 0.  0.
       11    1    3    3    0    0  0.37375815593E+02  0.10038400156E+02 -0.12650031692E+02  0.40715407044E+02  0.00000000000E+00 0. -1.
      -12    1    3    3    0    0 -0.37375815593E+02 -0.10038400156E+02 -0.39892100090E+02  0.55579679008E+02  0.00000000000E+00 0.  1.
</event>
<event>
 5   0  0.8936300E+00  0.8210467E+02  0.7957747E-01  0.1322004E+00
        1   -1    0    0  501    0  0.00000000000E+00  0.00000000000E+00  0.20809209238E+02  0.20809209238E+02  0.00000000000E+00 0. -1.
       -2   -1    0    0    0  501  0.00000000000E+00  0.00000000000E+00 -0.80987897527E+02  0.80987897527E+02  0.00000000000E+00 0.  1.
      -24    2    1    2    0    0  0.00000000000E+00  0.00000000000E+00 -0.60178688288E+02  0.10179710677E+03  0.82104667478E+02 0.  0.
       11    1    3    3    0    0 -0.34960315281E+02 -0.18979137023E+02 -0.42664020000E+02  0.58332237135E+02  0.00000000000E+00 0. -1.
      -12    1    3    3    0    0  0.34960315281E+02  0.18979137023E+02 -0.17514668289E+02  0.43464869630E+02  0.00000000000E+00 0.  1.
</event>
<event>
 5   0  0.8936300E+00  0.7794355E+02  0.7957747E-01  0.1333189E+00
       -2   -1    0    0    0  501  0.00000000000E+00  0.00000000000E+00  0.10315340251E+02  0.10315340251E+02  0.00000000000E+00 0.  1.
        1   -1    0    0  501    0  0.00000000000E+00  0.00000000000E+00 -0.14723696081E+03  0.14723696081E+03  0.00000000000E+00 0. -1.
      -24    2    1    2    0    0  0.00000000000E+00  0.00000000000E+00 -0.13692162056E+03  0.15755230106E+03  0.77943552606E+02 0.  0.
       11    1    3    3    0    0 -0.38276190429E+01 -0.36586156570E+02 -0.94473012233E+02  0.10138218562E+03  0.00000000000E+00 0. -1.
      -12    1    3    3    0    0  0.38276190429E+01  0.36586156570E+02 -0.42448608325E+02  0.56170115442E+02  0.00000000000E+00 0.  1.
</event>
<event>
 5   0  0.8936300E+00  0.8084314E+02  0.7957747E-01  0.1325314E+00
        1   -1    0    0  501    0  0.00000000000E+00  0.00000000000E+00  0.24052871365E+03  0.24052871365E+03  0.00000000000E+00 0. -1.
       -2   -1    0    0    0  501  0.00000000000E+00  0.00000000000E+00 -0.67929654175E+01  0.67929654175E+01  0.00000000000E+00 0.  1.
      -24    2    1    2    0    0  0.00000000000E+00  0.00000000000E+00  0.23373574824E+03  0.24732167907E+03  0.80843137835E+02 0.  0.
       11    1    3    3    0    0 -0.18174556847E+02 -0.35726490122E+02  0.13282506080E+03  0.13874146240E+03  0.00000000000E+00 0. -1.
      -12    1    3    3    0    0  0.18174556847E+02  0.35726490122E+02  0.10091068744E+03  0.10858021667E+03  0.00000000000E+00 0.  1.
</event>
<event>
 5   0  0.8936300E+00  0.7828679E+02  0.7957747E-01  0.1332237E+00
        1   -1    0    0  501    0  0.00000000000E+00  0.00000000000E+00  0.47153688740E+01  0.47153688740E+01  0.00000000000E+00 0. -1.
       -2   -1    0    0    0  501  0.00000000000E+00  0.00000000000E+00 -0.32493860848E+03  0.32493860848E+03  0.00000000000E+00 0.  1.
      -24    2    1    2    0    0  0.00000000000E+00  0.00000000000E+00 -0.32022323961E+03  0.32965397736E+03  0.78286790722E+02 0.  0.
       11    1    3    3    0    0  0.12918725730E+02  0.33796681876E+02 -0.97216646666E+02  0.10373131431E+03  0.00000000000E+00 0. -1.
      -12    1    3    3    0    0 -0.12918725730E+02 -0.33796681876E+02 -0.22300659294E+03  0.22592266304E+03  0.00000000000E+00 0.  1.
</event>
<event>
 5   0  0.8936300E+00  0.8111597E+02  0.7957747E-01  0.1324592E+00
        1   -1    0    0  501    0  0.00000000000E+00  0.00000000000E+00  0.12161281336E+02  0.12161281336E+02  0.00000000000E+00 0. -1.
       -2   -1    0    0    0  501  0.00000000000E+00  0.00000000000E+00 -0.13526126092E+03  0.13526126092E+03  0.00000000000E+00 0.  1.
      -24    2    1    2    0    0  0.00000000000E+00  0.00000000000E+00 -0.12309997959E+03  0.14742254226E+03  0.81115972482E+02 0.  0.
       11    1    3    3    0    0 -0.31720855652E+02 -0.72842028527E+01 -0.17566776443E+02  0.36984644504E+02  0.00000000000E+00 0. -1.
      -12    1    3    3    0    0  0.31720855652E+02  0.72842028527E+01 -0.10553320315E+03  0.11043789776E+03  0.00000000000E+00 0.  1.
</event>
<event>
 5   0  0.8936300E+00  0.7569497E+02  0.7957747E-01  0.1339568E+00
        1   -1    0    0  501    0  0.00000000000E+00  0.00000000000E+00  0.32709330333E+02  0.32709330333E+02  0.00000000000E+00 0. -1.
       -2   -1    0    0    0  501  0.00000000000E+00  0.00000000000E+00 -0.43792762629E+02  0.43792762629E+02  0.00000000000E+00 0.  1.
      -24    2    1    2    0    0  0.00000000000E+00  0.00000000000E+00 -0.11083432295E+02  0.76502092962E+02  0.75694965197E+02 0.  0.
       11    1    3    3    0    0 -0.19700586016E+02 -0.32280299645E+02 -0.40086020082E+01  0.38028932731E+02  0.00000000000E+00 0. -1.
      -12    1    3    3    0    0  0.19700586016E+02  0.32280299645E+02 -0.70748302871E+01  0.38473160231E+02  0.00000000000E+00 0.  1.
</event>
<event>
 5   0  0.8936300E+00  0.7869591E+02  0.7957747E-01  0.1331109E+00
       -4   -1    0    0    0  501  0.00000000000E+00  0.00000000000E+00  0.17712182304E+02  0.17712182304E+02  0.00000000000E+00 0.  1.
        3   -1    0    0  501    0  0.00000000000E+00  0.00000000000E+00 -0.87412250250E+02  0.87412250250E+02  0.00000000000E+00 0. -1.
      -24    2    1    2    0    0  0.00000000000E+00  0.00000000000E+00 -0.69700067946E+02  0.10512443255E+03  0.78695913796E+02 0.  0.
       11    1    3    3    0    0 -0.42854233611E+01 -0.30594803737E+02 -0.22969878769E+01  0.30978751143E+02  0.00000000000E+00 0. -1.
      -12    1    3    3    0    0  0.42854233611E+01  0.30594803737E+02 -0.67403080069E+02  0.74145681411E+02  0.00000000000E+00 0.  1.
</event>
<event>
 5   0  0.8936300E+00  0.8213536E+02  0.7957747E-01  0.1321924E+00
        1   -1    0    0  501    0  0.00000000000E+00  0.00000000000E+00  0.82447752800E+01  0.82447752800E+01  0.00000000000E+00 0. -1.
       -2   -1    0    0    0  501  0.00000000000E+00  0.00000000000E+00 -0.20456035975E+03  0.20456035975E+03  0.00000000000E+00 0.  1.
      -24    2    1    2    0    0  0.00000000000E+00  0.00000000000E+00 -0.19631558447E+03  0.21280513503E+03  0.82135356513E+02 0.  0.
       11    1    3    3    0    0 -0.27562736242E+02  0.30949006932E+00 -0.19283733835E+02  0.33640193280E+02  0.00000000000E+00 0. -1.
      -12    1    3    3    0    0  0.27562736242E+02 -0.30949006932E+00 -0.17703185064E+03  0.17916494175E+03  0.00000000000E+00 0.  1.
</event>
<event>
 5   0  0.8936300E+00  0.8252907E+02  0.7957747E-01  0.1320905E+00
        1   -1    0    0  501    0  0.00000000000E+00  0.00000000000E+00  0.70761534017E+01  0.70761534017E+01  0.00000000000E+00 0. -1.
       -2   -1    0    0    0  501  0.00000000000E+00  0.00000000000E+00 -0.24063382839E+03  0.24063382839E+03  0.00000000000E+00 0.  1.
      -24    2    1    2    0    0  0.00000000000E+00  0.00000000000E+00 -0.23355767499E+03  0.24770998179E+03  0.82529070837E+02 0.  0.
       11    1    3    3    0    0  0.32172748020E+02  0.24602876953E+02 -0.93073808724E+02  0.10150429124E+03  0.00000000000E+00 0. -1.
      -12    1    3    3    0    0 -0.32172748020E+02 -0.24602876953E+02 -0.14048386626E+03  0.14620569055E+03  0.00000000000E+00 0.  1.
</event>
<event>
 5   0  0.8936300E+00  0.8019957E+02  0.7957747E-01  0.1327029E+00
        1   -1    0    0  501    0  0.00000000000E+00  0.00000000000E+00  0.55767310495E+01  0.55767310495E+01  0.00000000000E+00 0. -1.
       -2   -1    0    0    0  501  0.00000000000E+00  0.00000000000E+00 -0.28833963938E+03  0.28833963938E+03  0.00000000000E+00 0.  1.
      -24    2    1    2    0    0  0.00000000000E+00  0.00000000000E+00 -0.28276290833E+03  0.29391637043E+03  0.80199566576E+02 0.  0.
       11    1    3    3    0    0  0.10561029610E+02  0.25566091777E+02 -0.34986184258E+02  0.44600375381E+02  0.00000000000E+00 0. -1.
      -12    1    3    3    0    0 -0.10561029610E+02 -0.25566091777E+02 -0.24777672407E+03  0.24931599505E+03  0.00000000000E+00 0.  1.
</event>
<event>
 5   0  0.8936300E+00  0.8063973E+02  0.7957747E-01  0.1325854E+00
        1   -1    0    0  501    0  0.00000000000E+00  0.00000000000E+00  0.11748688592E+03  0.11748688592E+03  0.00000000000E+00 0. -1.
       -2   -1    0    0    0  501  0.00000000000E+00  0.00000000000E+00 -0.13837215852E+02  0.13837215852E+02  0.00000000000E+00 0.  1.
      -24    2    1    2    0    0  0.00000000000E+00  0.00000000000E+00  0.10364967007E+03  0.13132410178E+03  0.80639727190E+02 0.  0.
       11    1    3    3    0    0  0.32157297109E+02 -0.52365918883E+01  0.90506340279E+02  0.96192054155E+02  0.00000000000E+00 0. -1.
      -12    1    3    3    0    0 -0.32157297109E+02  0.52365918883E+01  0.13143329793E+02  0.35132047620E+02  0.00000000000E+00 0.  1.
</event>
<event>
 5   0  0.8936300E+00  0.8110362E+02  0.7957747E-01  0.1324625E+00
        1   -1    0    0  501    0  0.00000000000E+00  0.00000000000E+00  0.12167753262E+02  0.12167753262E+02  0.00000000000E+00 0. -1.
       -2   -1    0    0    0  501  0.00000000000E+00  0.00000000000E+00 -0.13514814435E+03  0.13514814435E+03  0.00000000000E+00 0.  1.
      -24    2    1    2    0    0  0.00000000000E+00  0.00000000000E+00 -0.12298039109E+03  0.14731589761E+03  0.81103619507E+02 0.  0.
       11    1    3    3    0    0  0.28261329827E+02 -0.14409949876E+00 -0.86670625839E+01  0.29560810240E+02  0.00000000000E+00 0. -1.
      -12    1    3    3    0    0 -0.28261329827E+02  0.14409949876E+00 -0.11431332850E+03  0.11775508737E+03  0.00000000000E+00 0.  1.
</event>
<event>
 5   0  0.8936300E+00  0.8105307E+02  0.7957747E-01  0.1324758E+00
       -2   -1    0    0    0  501  0.00000000000E+00  0.00000000000E+00  0.34572069856E+02  0.34572069856E+02  0.00000000000E+00 0.  1.
        1   -1    0    0  501    0  0.00000000000E+00  0.00000000000E+00 -0.47506560013E+02  0.47506560013E+02  0.00000000000E+00 0. -1.
      -24    2    1    2    0    0  0.00000000000E+00  0.00000000000E+00 -0.12934490157E+02  0.82078629869E+02  0.81053071784E+02 0.  0.
       11    1    3    3    0    0 -0.19094118600E+02 -0.32306372580E+01 -0.42517941209E+02  0.46720420662E+02  0.00000000000E+00 0. -1.
      -12    1    3    3    0    0  0.19094118600E+02  0.32306372580E+01  0.29583451052E+02  0.35358209207E+02  0.00000000000E+00 0.  1.
</event>
<event>
 5   0  0.8936300E+00  0.7956988E+02  0.7957747E-01  0.1328725E+00
        1   -1    0    0  501    0  0.00000000000E+00  0.00000000000E+00  0.14113212065E+03  0.14113212065E+03  0.00000000000E+00 0. -1.
       -2   -1    0    0    0  501  0.00000000000E+00  0.00000000000E+00 -0.11215317288E+02  0.11215317288E+02  0.00000000000E+00 0.  1.
      -24    2    1    2    0    0  0.00000000000E+00  0.00000000000E+00  0.12991680337E+03  0.15234743794E+03  0.79569881556E+02 0.  0.
       11    1    3    3    0    0 -0.24379496089E+02  0.29156748212E+01  0.12489542432E+03  0.12728600868E+03  0.00000000000E+00 0. -1.
      -12    1    3    3    0    0  0.24379496089E+02 -0.29156748212E+01  0.50213790447E+01  0.25061429263E+02  0.00000000000E+00 0.  1.
</event>
<event>
 5   0  0.8936300E+00  0.7940773E+02  0.7957747E-01  0.1329165E+00
        1   -1    0    0  501    0  0.00000000000E+00  0.00000000000E+00  0.32203875134E+02  0.32203875134E+02  0.00000000000E+00 0. -1.
       -2   -1    0    0    0  501  0.00000000000E+00  0.00000000000E+00 -0.48950529586E+02  0.48950529586E+02  0.00000000000E+00 0.  1.
      -24    2    1    2    0    0  0.00000000000E+00  0.00000000000E+00 -0.16746654451E+02  0.81154404720E+02  0.79407726136E+02 0.  0.
       11    1    3    3    0    0 -0.31265870747E+02  0.24419061717E+02 -0.67408520151E+01  0.40240332188E+02  0.00000000000E+00 0. -1.
      -12    1    3    3    0    0  0.31265870747E+02 -0.24419061717E+02 -0.10005802436E+02  0.40914072532E+02  0.00000000000E+00 0.  1.
</event>
<event>
 5   0  0.8936300E+00  0.5482809E+02  0.7957747E-01  0.1414113E+00
        1   -1    0    0  501    0  0.00000000000E+00  0.00000000000E+00  0.24450633774E+01  0.24450633774E+01  0.00000000000E+00 0. -1.
       -2   -1    0    0    0  501  0.00000000000E+00  0.00000000000E+00 -0.30736618738E+03  0.30736618738E+03  0.00000000000E+00 0.  1.
      -24    2    1    2    0    0  0.00000000000E+00  0.00000000000E+00 -0.30492112400E+03  0.30981125076E+03  0.54828087991E+02 0.  0.
       11    1    3    3    0    0  0.57261018158E+01 -0.11098890169E+02 -0.14563358089E+02  0.19185020298E+02  0.00000000000E+00 0. -1.
      -12    1    3    3    0    0 -0.57261018158E+01  0.11098890169E+02 -0.29035776591E+03  0.29062623046E+03  0.00000000000E+00 0.  1.
</event>
<event>
 5   0  0.8936300E+00  0.7880620E+02  0.7957747E-01  0.1330806E+00
        1   -1    0    0  501    0  0.00000000000E+00  0.00000000000E+00  0.13390681028E+02  0.13390681028E+02  0.00000000000E+00 0. -1.
       -2   -1    0    0    0  501  0.00000000000E+00  0.00000000000E+00 -0.11594663348E+03  0.11594663348E+03  0.00000000000E+00 0.  1.
      -24    2    1    2    0    0  0.00000000000E+00  0.00000000000E+00 -0.10255595245E+03  0.12933731451E+03  0.78806202426E+02 0.  0.
       11    1    3    3    0    0  0.16847608085E+01 -0.11052443986E+02  0.10732939702E+02  0.15498094454E+02  0.00000000000E+00 0. -1.
      -12    1    3    3    0    0 -0.16847608085E+01  0.11052443986E+02 -0.11328889215E+03  0.11383922005E+03  0.00000000000E+00 0.  1.
</event>
<event>
 5   0  0.8936300E+00  0.8059985E+02  0.7957747E-01  0.1325960E+00
       -2   -1    0    0    0  501  0.00000000000E+00  0.00000000000E+00  0.69117273705E+02  0.69117273705E+02  0.00000000000E+00 0.  1.
        1   -1    0    0  501    0  0.00000000000E+00  0.00000000000E+00 -0.23497511707E+02  0.23497511707E+02  0.00000000000E+00 0. -1.
      -24    2    1    2    0    0  0.00000000000E+00  0.00000000000E+00  0.45619761998E+02  0.92614785412E+02  0.80599849827E+02 0.  0.
       11    1    3    3    0    0  0.28971432920E+02  0.26724866651E+02  0.13160333683E+02  0.41554263387E+02  0.00000000000E+00 0. -1.
      -12    1    3    3    0    0 -0.28971432920E+02 -0.26724866651E+02  0.32459428315E+02  0.51060522025E+02  0.00000000000E+00 0.  1.
</event>
<event>
 5   0  0.8936300E+00  0.8300674E+02  0.7957747E-01  0.1319678E+00
        1   -1    0    0  501    0  0.00000000000E+00  0.00000000000E+00  0.48154224511E+01  0.48154224511E+01  0.00000000000E+00 0. -1.
       -2   -1    0    0    0  501  0.00000000000E+00  0.00000000000E+00 -0.35771100802E+03  0.35771100802E+03  0.00000000000E+00 0.  1.
      -24    2    1    2    0    0  0.00000000000E+00  0.00000000000E+00 -0.35289558557E+03  0.36252643047E+03  0.83006737534E+02 0.  0.
       11    1    3    3    0    0  0.14380145561E+02 -0.19132191668E+02 -0.28360208862E+02  0.37109712894E+02  0.00000000000E+00 0. -1.
      -12    1    3    3    0    0 -0.14380145561E+02  0.19132191668E+02 -0.32453537670E+03  0.32541671757E+03  0.00000000000E+00 0.  1.
</event>
<event>
 5   0  0.8936300E+00  0.7893953E+02  0.7957747E-01  0.1330441E+00
        1   -1    0    0  501    0  0.00000000000E+00  0.00000000000E+00  0.13507292279E+03  0.13507292279E+03  0.00000000000E+00 0. -1.
       -2   -1    0    0    0  501  0.00000000000E+00  0.00000000000E+00 -0.11533489918E+02  0.11533489918E+02  0.00000000000E+00 0.  1.
      -24    2    1    2    0    0  0.00000000000E+00  0.00000000000E+00  0.12353943287E+03  0.14660641271E+03  0.78939526047E+02 0.  0.
       11    1    3    3    0    0  0.27417962310E+02  0.18082826946E+01  0.11439264610E+03  0.11764647051E+03  0.00000000000E+00 0. -1.
      -12    1    3    3    0    0 -0.27417962310E+02 -0.18082826946E+01  0.91467867760E+01  0.28959942193E+02  0.00000000000E+00 0.  1.
</event>
<event>
 5   0  0.8936300E+00  0.8162880E+02  0.7957747E-01  0.1323244E+00
        1   -1    0    0  501    0  0.00000000000E+00  0.00000000000E+00  0.87003486453E+01  0.87003486453E+01  0.00000000000E+00 0. -1.
       -2   -1    0    0    0  501  0.00000000000E+00  0.00000000000E+00 -0.19146533602E+03  0.19146533602E+03  0.00000000000E+00 0.  1.
      -24    2    1    2    0    0  0.00000000000E+00  0.00000000000E+00 -0.18276498738E+03  0.20016568467E+03  0.81628798273E+02 0.  0.
       11    1    3    3    0    0 -0.25756770396E+02  0.91054753026E+01 -0.17025685646E+02  0.32189980949E+02  0.00000000000E+00 0. -1.
      -12    1    3    3    0    0  0.25756770396E+02 -0.91054753026E+01 -0.16573930173E+03  0.16797570372E+03  0.00000000000E+00 0.  1.
</event>
<event>
 5   0  0.8936300E+00  0.7855603E+02  0.7957747E-01  0.1331493E+00
       -2   -1    0    0    0  501  0.00000000000E+00  0.00000000000E+00  0.82248815827E+01  0.82248815827E+01  0.00000000000E+00 0.  1.
        1   -1    0    0  501    0  0.00000000000E+00  0.00000000000E+00 -0.18757262096E+03  0.18757262096E+03  0.00000000000E+00 0. -1.
      -24    2    1    2    0    0  0.00000000000E+00  0.00000000000E+00 -0.17934773937E+03  0.19579750254E+03  0.78556033390E+02 0.  0.
       11    1    3    3    0    0  0.41083540006E+01 -0.38300989802E+02 -0.10880551622E+03  0.11542306855E+03  0.00000000000E+00 0. -1.
      -12    1    3    3    0    0 -0.41083540006E+01  0.38300989802E+02 -0.70542223149E+02  0.80374433990E+02  0.00000000000E+00 0.  1.
</event>
<event>
 5   0  0.8936300E+00  0.6848631E+02  0.7957747E-01  0.1361845E+00
       -2   -1    0    0    0  501  0.00000000000E+00  0.00000000000E+00  0.25788226571E+02  0.25788226571E+02  0.00000000000E+00 0.  1.
        1   -1    0    0  501    0  0.00000000000E+00  0.00000000000E+00 -0.45470111556E+02  0.45470111556E+02  0.00000000000E+00 0. -1.
      -24    2    1    2    0    0  0.00000000000E+00  0.00000000000E+00 -0.19681884985E+02  0.71258338127E+02  0.68486306340E+02 0.  0.
       11    1    3    3    0    0 -0.33568087111E+02  0.67294179773E+01 -0.10570760670E+02  0.35830748244E+02  0.00000000000E+00 0. -1.
      -12    1    3    3    0    0  0.33568087111E+02 -0.67294179773E+01 -0.91111243148E+01  0.35427589883E+02  0.00000000000E+00 0.  1.
</event>
<event>
 5   0  0.8936300E+00  0.8004506E+02  0.7957747E-01  0.1327444E+00
        1   -1    0    0  501    0  0.00000000000E+00  0.00000000000E+00  0.30650060946E+02  0.30650060946E+02  0.00000000000E+00 0. -1.
       -2   -1    0    0    0  501  0.00000000000E+00  0.00000000000E+00 -0.52261002238E+02  0.52261002238E+02  0.00000000000E+00 0.  1.
      -24    2    1    2    0    0  0.00000000000E+00  0.00000000000E+00 -0.21610941292E+02  0.82911063183E+02  0.80045059902E+02 0.  0.
       11    1    3    3    0    0 -0.33021062657E+02 -0.14127777284E+02  0.74851610083E+01  0.36688040358E+02  0.00000000000E+00 0. -1.
      -12    1    3    3    0    0  0.33021062657E+02  0.14127777284E+02 -0.29096102300E+02  0.46223022825E+02  0.00000000000E+00 0.  1.
</event>
<event>
 5   0  0.8936300E+00  0.7870534E+02  0.7957747E-01  0.1331083E+00
        1   -1    0    0  501    0  0.00000000000E+00  0.00000000000E+00  0.72618592856E+01  0.72618592856E+01  0.00000000000E+00 0. -1.
       -2   -1    0    0    0  501  0.00000000000E+00  0.00000000000E+00 -0.21325567193E+03  0.21325567193E+03  0.00000000000E+00 0.  1.
      -24    2    1    2    0    0  0.00000000000E+00  0.00000000000E+00 -0.20599381264E+03  0.22051753122E+03  0.78705341151E+02 0.  0.
       11    1    3    3    0    0  0.24558544365E+02 -0.25612243149E+02 -0.55322983747E+02  0.65724741392E+02  0.00000000000E+00 0. -1.
      -12    1    3    3    0    0 -0.24558544365E+02  0.25612243149E+02 -0.15067082890E+03  0.15479278982E+03  0.00000000000E+00 0.  1.
</event>
<event>
 5   0  0.8936300E+00  0.8390047E+02  0.7957747E-01  0.1317406E+00
       -2   -1    0    0    0  501  0.00000000000E+00  0.00000000000E+00  0.61198505501E+02  0.61198505501E+02  0.00000000000E+00 0.  1.
        1   -1    0    0  501    0  0.00000000000E+00  0.00000000000E+00 -0.28755966361E+02  0.28755966361E+02  0.00000000000E+00 0. -1.
      -24    2    1    2    0    0  0.00000000000E+00  0.00000000000E+00  0.32442539140E+02  0.89954471862E+02  0.83900468783E+02 0.  0.
       11    1    3    3    0    0 -0.27977384421E+02  0.27438210231E+02  0.32276180044E+02  0.50767521290E+02  0.00000000000E+00 0. -1.
      -12    1    3    3    0    0  0.27977384421E+02 -0.27438210231E+02  0.16635909530E+00  0.39186950571E+02  0.00000000000E+00 0.  1.
</event>
<event>
 5   0  0.8936300E+00  0.7979330E+02  0.7957747E-01  0.1328121E+00
        1   -1    0    0  501    0  0.00000000000E+00  0.00000000000E+00  0.51807395651E+01  0.51807395651E+01  0.00000000000E+00 0. -1.
       -2   -1    0    0    0  501  0.00000000000E+00  0.00000000000E+00 -0.30724236253E+03  0.30724236253E+03  0.00000000000E+00 0.  1.
      -24    2    1    2    0    0  0.00000000000E+00  0.00000000000E+00 -0.30206162297E+03  0.31242310210E+03  0.79793299559E+02 0.  0.
       11    1    3    3    0    0  0.33621558967E+02 -0.20740348495E+02 -0.12917058110E+03  0.13507631289E+03  0.00000000000E+00 0. -1.
      -12    1    3    3    0    0 -0.33621558967E+02  0.20740348495E+02 -0.17289104187E+03  0.17734678921E+03  0.00000000000E+00 0.  1.
</event>
<event>
 5   0  0.8936300E+00  0.7984356E+02  0.7957747E-01  0.1327986E+00
        1   -1    0    0  501    0  0.00000000000E+00  0.00000000000E+00  0.35685030064E+02  0.35685030064E+02  0.00000000000E+00 0. -1.
       -2   -1    0    0    0  501  0.00000000000E+00  0.00000000000E+00 -0.44661538424E+02  0.44661538424E+02  0.00000000000E+00 0.  1.
      -24    2    1    2    0    0  0.00000000000E+00  0.00000000000E+00 -0.89765083600E+01  0.80346568489E+02  0.79843555567E+02 0.  0.
       11    1    3    3    0    0  0.34057933709E+01  0.22034567523E+02  0.28835727098E+02  0.36450250365E+02  0.00000000000E+00 0. -1.
      -12    1    3    3    0    0 -0.34057933709E+01 -0.22034567523E+02 -0.37812235458E+02  0.43896318123E+02  0.00000000000E+00 0.  1.
</event>
<event>
 5   0  0.8936300E+00  0.8227778E+02  0.7957747E-01  0.1321555E+00
        1   -1    0    0  501    0  0.00000000000E+00  0.00000000000E+00  0.23883056413E+02  0.23883056413E+02  0.00000000000E+00 0. -1.
       -2   -1    0    0    0  501  0.00000000000E+00  0.00000000000E+00 -0.70862292086E+02  0.70862292086E+02  0.00000000000E+00 0.  1.
      -24    2    1    2    0    0  0.00000000000E+00  0.00000000000E+00 -0.46979235673E+02  0.94745348499E+02  0.82277776330E+02 0.  0.
       11    1    3    3    0    0 -0.39147852943E+01 -0.24890203888E+02  0.13958321692E+02  0.28804210421E+02  0.00000000000E+00 0. -1.
      -12    1    3    3    0    0  0.39147852943E+01  0.24890203888E+02 -0.60937557365E+02  0.65941138079E+02  0.00000000000E+00 0.  1.
</event>
<event>
 5   0  0.8936300E+00  0.8085896E+02  0.7957747E-01  0.1325272E+00
        1   -1    0    0  501    0  0.00000000000E+00  0.00000000000E+00  0.15377806124E+03  0.15377806124E+03  0.00000000000E+00 0. -1.
       -2   -1    0    0    0  501  0.00000000000E+00  0.00000000000E+00 -0.10629231886E+02  0.10629231886E+02  0.00000000000E+00 0.  1.
      -24    2    1    2    0    0  0.00000000000E+00  0.00000000000E+00  0.14314882936E+03  0.16440729313E+03  0.80858955519E+02 0.  0.
       11    1    3    3    0    0  0.15432412287E+02  0.21179586722E+02  0.13417137365E+03  0.13670659000E+03  0.00000000000E+00 0. -1.
      -12    1    3    3    0    0 -0.15432412287E+02 -0.21179586722E+02  0.89774557058E+01  0.27700703126E+02  0.00000000000E+00 0.  1.
</event>
<event>
 5   0  0.8936300E+00  0.8175348E+02  0.7957747E-01  0.1322918E+00
        1   -1    0    0  501    0  0.00000000000E+00  0.00000000000E+00  0.40436236054E+01  0.40436236054E+01  0.00000000000E+00 0. -1.
       -2   -1    0    0    0  501  0.00000000000E+00  0.00000000000E+00 -0.41322045726E+03  0.41322045726E+03  0.00000000000E+00 0.  1.
      -24    2    1    2    0    0  0.00000000000E+00  0.00000000000E+00 -0.40917683366E+03  0.41726408087E+03  0.81753482989E+02 0.  0.
       11    1    3    3    0    0 -0.32465550098E+01 -0.19005354547E+02 -0.20622746029E+02  0.28231919429E+02  0.00000000000E+00 0. -1.
      -12    1    3    3    0    0  0.32465550098E+01  0.19005354547E+02 -0.38855408763E+03  0.38903216144E+03  0.00000000000E+00 0.  1.
</event>
<event>
 5   0  0.8936300E+00  0.7992556E+02  0.7957747E-01  0.1327765E+00
        1   -1    0    0  501    0  0.00000000000E+00  0.00000000000E+00  0.10794886388E+02  0.10794886388E+02  0.00000000000E+00 0. -1.
       -2   -1    0    0    0  501  0.00000000000E+00  0.00000000000E+00 -0.14794262643E+03  0.14794262643E+03  0.00000000000E+00 0.  1.
      -24    2    1    2    0    0  0.00000000000E+00  0.00000000000E+00 -0.13714774004E+03  0.15873751282E+03  0.79925561473E+02 0.  0.
       11    1    3    3    0    0  0.38000912588E+02  0.81925456380E+01 -0.86974400252E+02  0.95266644009E+02  0.00000000000E+00 0. -1.
      -12    1    3    3    0    0 -0.38000912588E+02 -0.81925456380E+01 -0.50173339790E+02  0.63470868808E+02  0.00000000000E+00 0.  1.
</event>
<event>
 5   0  0.8936300E+00  0.8218883E+02  0.7957747E-01  0.1321785E+00
        1   -1    0    0  501    0  0.00000000000E+00  0.00000000000E+00  0.63614637771E+01  0.63614637771E+01  0.00000000000E+00 0. -1.
       -2   -1    0    0    0  501  0.00000000000E+00  0.00000000000E+00 -0.26546580897E+03  0.26546580897E+03  0.00000000000E+00 0.  1.
      -24    2    1    2    0    0  0.00000000000E+00  0.00000000000E+00 -0.25910434519E+03  0.27182727275E+03  0.82188834469E+02 0.  0.
       11    1    3    3    0    0 -0.15804869591E+02 -0.38636920935E+01 -0.47449727507E+01  0.16948061416E+02  0.00000000000E+00 0. -1.
      -12    1    3    3    0    0  0.15804869591E+02  0.38636920935E+01 -0.25435937244E+03  0.25487921133E+03  0.00000000000E+00 0.  1.
</event>
<event>
 5   0  0.8936300E+00  0.8047962E+02  0.7957747E-01  0.1326281E+00
        1   -1    0    0  501    0  0.00000000000E+00  0.00000000000E+00  0.33502792879E+02  0.33502792879E+02  0.00000000000E+00 0. -1.
       -2   -1    0    0    0  501  0.00000000000E+00  0.00000000000E+00 -0.48331561340E+02  0.48331561340E+02  0.00000000000E+00 0.  1.
      -24    2    1    2    0    0  0.00000000000E+00  0.00000000000E+00 -0.14828768461E+02  0.81834354220E+02  0.80479619510E+02 0.  0.
       11    1    3    3    0    0 -0.10471495304E+02 -0.14566578377E+02  0.29211448442E+02  0.34280404601E+02  0.00000000000E+00 0. -1.
      -12    1    3    3    0    0  0.10471495304E+02  0.14566578377E+02 -0.44040216903E+02  0.47553949619E+02  0.00000000000E+00 0.  1.
</event>
<event>
 5   0  0.8936300E+00  0.8004676E+02  0.7957747E-01  0.1327439E+00
        1   -1    0    0  501    0  0.00000000000E+00  0.00000000000E+00  0.41335628361E+01  0.41335628361E+01  0.00000000000E+00 0. -1.
       -2   -1    0    0    0  501  0.00000000000E+00  0.00000000000E+00 -0.38752792395E+03  0.38752792395E+03  0.00000000000E+00 0.  1.
      -24    2    1    2    0    0  0.00000000000E+00  0.00000000000E+00 -0.38339436112E+03  0.39166148679E+03  0.80046761943E+02 0.  0.
       11    1    3    3    0    0 -0.39949065209E+02 -0.53086891323E-01 -0.17977173087E+03  0.18415701412E+03  0.00000000000E+00 0. -1.
      -12    1    3    3    0    0  0.39949065209E+02  0.53086891323E-01 -0.20362263025E+03  0.20750447267E+03  0.00000000000E+00 0.  1.
</event>
<event>
 5   0  0.8936300E+00  0.7970841E+02  0.7957747E-01  0.1328351E+00
       -2   -1    0    0    0  501  0.00000000000E+00  0.00000000000E+00  0.20647087410E+02  0.20647087410E+02  0.00000000000E+00 0.  1.
        1   -1    0    0  501    0  0.00000000000E+00  0.00000000000E+00 -0.76928894328E+02  0.76928894328E+02  0.00000000000E+00 0. -1.
      -24    2    1    2    0    0  0.00000000000E+00  0.00000000000E+00 -0.56281806917E+02  0.97575981738E+02  0.79708408730E+02 0.  0.
       11    1    3    3    0    0 -0.16051415087E+02 -0.31246108658E+02 -0.50957423671E+01  0.35495546521E+02  0.00000000000E+00 0. -1.
      -12    1    3    3    0    0  0.16051415087E+02  0.31246108658E+02 -0.51186064550E+02  0.62080435217E+02  0.00000000000E+00 0.  1.
</event>
<event>
 5   0  0.8936300E+00  0.8125331E+02  0.7957747E-01  0.1324230E+00
        1   -1    0    0  501    0  0.00000000000E+00  0.00000000000E+00  0.12590957852E+02  0.12590957852E+02  0.00000000000E+00 0. -1.
       -2   -1    0    0    0  501  0.00000000000E+00  0.00000000000E+00 -0.13108813798E+03  0.13108813798E+03  0.00000000000E+00 0.  1.
      -24    2    1    2    0    0  0.00000000000E+00  0.00000000000E+00 -0.11849718013E+03  0.14367909583E+03  0.81253313045E+02 0.  0.
       11    1    3    3    0    0  0.24924671041E+02 -0.26844204838E+02 -0.28181326797E+02  0.46217288323E+02  0.00000000000E+00 0. -1.
      -12    1    3    3    0    0 -0.24924671041E+02  0.26844204838E+02 -0.90315853334E+02  0.97461807511E+02  0.00000000000E+00 0.  1.
</event>
<event>
 5   0  0.8936300E+00  0.8001083E+02  0.7957747E-01  0.1327536E+00
        1   -1    0    0  501    0  0.00000000000E+00  0.00000000000E+00  0.89899882926E+01  0.89899882926E+01  0.00000000000E+00 0. -1.
       -2   -1    0    0    0  501  0.00000000000E+00  0.00000000000E+00 -0.17802394597E+03  0.17802394597E+03  0.00000000000E+00 0.  1.
      -24    2    1    2    0    0  0.00000000000E+00  0.00000000000E+00 -0.16903395767E+03  0.18701393426E+03  0.80010829018E+02 0.  0.
       11    1    3    3    0    0 -0.35142755980E+02  0.98001246520E+01 -0.46154574868E+02  0.58832818412E+02  0.00000000000E+00 0. -1.
      -12    1    3    3    0    0  0.35142755980E+02 -0.98001246520E+01 -0.12287938281E+03  0.12818111585E+03  0.00000000000E+00 0.  1.
</event>
<event>
 5   0  0.8936300E+00  0.8016818E+02  0.7957747E-01  0.1327113E+00
        1   -1    0    0  501    0  0.00000000000E+00  0.00000000000E+00  0.10286416594E+02  0.10286416594E+02  0.00000000000E+00 0. -1.
       -2   -1    0    0    0  501  0.00000000000E+00  0.00000000000E+00 -0.15619960375E+03  0.15619960375E+03  0.00000000000E+00 0.  1.
      -24    2    1    2    0    0  0.00000000000E+00  0.00000000000E+00 -0.14591318715E+03  0.16648602034E+03  0.80168178124E+02 0.  0.
       11    1    3    3    0    0 -0.26173509962E+02 -0.14402799477E+02 -0.17455936098E+02  0.34600620826E+02  0.00000000000E+00 0. -1.
      -12    1    3    3    0    0  0.26173509962E+02  0.14402799477E+02 -0.12845725106E+03  0.13188539952E+03  0.00000000000E+00 0.  1.
</event>
<event>
 5   0  0.8936300E+00  0.8183392E+02  0.7957747E-01  0.1322708E+00
        1   -1    0    0  501    0  0.00000000000E+00  0.00000000000E+00  0.13938314684E+03  0.13938314684E+03  0.00000000000E+00 0. -1.
       -2   -1    0    0    0  501  0.00000000000E+00  0.00000000000E+00 -0.12011478787E+02  0.12011478787E+02  0.00000000000E+00 0.  1.
      -24    2    1    2    0    0  0.00000000000E+00  0.00000000000E+00  0.12737166805E+03  0.15139462563E+03  0.81833922345E+02 0.  0.
       11    1    3    3    0    0  0.33611609554E+02 -0.22160578156E+02  0.50171016315E+02  0.64326995881E+02  0.00000000000E+00 0. -1.
      -12    1    3    3    0    0 -0.33611609554E+02  0.22160578156E+02  0.77200651737E+02  0.87067629746E+02  0.00000000000E+00 0.  1.
</event>
<event>
 5   0  0.8936300E+00  0.8017512E+02  0.7957747E-01  0.1327095E+00
        1   -1    0    0  501    0  0.00000000000E+00  0.00000000000E+00  0.22317192099E+02  0.22317192099E+02  0.00000000000E+00 0. -1.
       -2   -1    0    0    0  501  0.00000000000E+00  0.00000000000E+00 -0.72007817393E+02  0.72007817393E+02  0.00000000000E+00 0.  1.
      -24    2    1    2    0    0  0.00000000000E+00  0.00000000000E+00 -0.49690625294E+02  0.94325009492E+02  0.80175115676E+02 0.  0.
       11    1    3    3    0    0  0.27555535318E+02 -0.15297703391E+02  0.42994169164E+01  0.31808996235E+02  0.00000000000E+00 0. -1.
      -12    1    3    3    0    0 -0.27555535318E+02  0.15297703391E+02 -0.53990042210E+02  0.62516013257E+02  0.00000000000E+00 0.  1.
</event>
<event>
 5   0  0.8936300E+00  0.8104046E+02  0.7957747E-01  0.1324792E+00
        1   -1    0    0  501    0  0.00000000000E+00  0.00000000000E+00  0.19030825390E+02  0.19030825390E+02  0.00000000000E+00 0. -1.
       -2   -1    0    0    0  501  0.00000000000E+00  0.00000000000E+00 -0.86275230698E+02  0.86275230698E+02  0.00000000000E+00 0.  1.
      -24    2    1    2    0    0  0.00000000000E+00  0.00000000000E+00 -0.67244405308E+02  0.10530605609E+03  0.81040455351E+02 0.  0.
       11    1    3    3    0    0 -0.11717087521E+02 -0.12010664537E+02  0.14304288297E+02  0.22049010552E+02  0.00000000000E+00 0. -1.
      -12    1    3    3    0    0  0.11717087521E+02  0.12010664537E+02 -0.81548693605E+02  0.83257045536E+02  0.00000000000E+00 0.  1.
</event>
<event>
 5   0  0.8936300E+00  0.8001791E+02  0.7957747E-01  0.1327517E+00
       -2   -1    0    0    0  501  0.00000000000E+00  0.00000000000E+00  0.14903956828E+02  0.14903956828E+02  0.00000000000E+00 0.  1.
        1   -1    0    0  501    0  0.00000000000E+00  0.00000000000E+00 -0.10740212499E+03  0.10740212499E+03  0.00000000000E+00 0. -1.
      -24    2    1    2    0    0  0.00000000000E+00  0.00000000000E+00 -0.92498168160E+02  0.12230608182E+03  0.80017913844E+02 0.  0.
       11    1    3    3    0    0 -0.20120582271E+02  0.13438550364E+02 -0.94951963180E+02  0.97986263214E+02  0.00000000000E+00 0. -1.
      -12    1    3    3    0    0  0.20120582271E+02 -0.13438550364E+02  0.24537950201E+01  0.24319818601E+02  0.00000000000E+00 0.  1.
</event>
<event>
 5   0  0.8936300E+00  0.8101721E+02  0.7957747E-01  0.1324853E+00
       -4   -1    0    0    0  501  0.00000000000E+00  0.00000000000E+00  0.24284169716E+02  0.24284169716E+02  0.00000000000E+00 0.  1.
        3   -1    0    0  501    0  0.00000000000E+00  0.00000000000E+00 -0.67572708934E+02  0.67572708934E+02  0.00000000000E+00 0. -1.
      -24    2    1    2    0    0  0.00000000000E+00  0.00000000000E+00 -0.43288539218E+02  0.91856878650E+02  0.81017211305E+02 0.  0.
       11    1    3    3    0    0 -0.20778983427E+02 -0.34515079708E+02 -0.16848673188E+02  0.43668463079E+02  0.00000000000E+00 0. -1.
      -12    1    3    3    0    0  0.20778983427E+02  0.34515079708E+02 -0.26439866030E+02  0.48188415570E+02  0.00000000000E+00 0.  1.
</event>
<event>
 5   0  0.8936300E+00  0.7900382E+02  0.7957747E-01  0.1330265E+00
        1   -1    0    0  501    0  0.00000000000E+00  0.00000000000E+00  0.92136307495E+01  0.92136307495E+01  0.00000000000E+00 0. -1.
       -2   -1    0    0    0  501  0.00000000000E+00  0.00000000000E+00 -0.16935788614E+03  0.16935788614E+03  0.00000000000E+00 0.  1.
      -24    2    1    2    0    0  0.00000000000E+00  0.00000000000E+00 -0.16014425539E+03  0.17857151689E+03  0.79003823386E+02 0.  0.
       11    1    3    3    0    0 -0.37460777111E+02  0.11789324434E+02 -0.70455124189E+02  0.80661158662E+02  0.00000000000E+00 0. -1.
      -12    1    3    3    0    0  0.37460777111E+02 -0.11789324434E+02 -0.89689131201E+02  0.97910358226E+02  0.00000000000E+00 0.  1.
</event>
<event>
 5   0  0.8936300E+00  0.8188080E+02  0.7957747E-01  0.1322586E+00
       -2   -1    0    0    0  501  0.00000000000E+00  0.00000000000E+00  0.19371286177E+03  0.19371286177E+03  0.00000000000E+00 0.  1.
        1   -1    0    0  501    0  0.00000000000E+00  0.00000000000E+00 -0.86525825248E+01  0.86525825248E+01  0.00000000000E+00 0. -1.
      -24    2    1    2    0    0  0.00000000000E+00  0.00000000000E+00  0.18506027924E+03  0.20236544429E+03  0.81880804162E+02 0.  0.
       11    1    3    3    0    0 -0.76545270480E+01 -0.40178148318E+02  0.96979554261E+02  0.10525164764E+03  0.00000000000E+00 0. -1.
      -12    1    3    3    0    0  0.76545270480E+01  0.40178148318E+02  0.88080724981E+02  0.97113796650E+02  0.00000000000E+00 0.  1.
</event>
<event>
 5   0  0.8936300E+00  0.7779165E+02  0.7957747E-01  0.1333612E+00
        1   -1    0    0  501    0  0.00000000000E+00  0.00000000000E+00  0.94291613132E+02  0.94291613132E+02  0.00000000000E+00 0. -1.
       -2   -1    0    0    0  501  0.00000000000E+00  0.00000000000E+00 -0.16044749609E+02  0.16044749609E+02  0.00000000000E+00 0.  1.
      -24    2    1    2    0    0  0.00000000000E+00  0.00000000000E+00  0.78246863524E+02  0.11033636274E+03  0.77791653097E+02 0.  0.
       11    1    3    3    0    0 -0.21045106348E+02  0.29545955413E+02  0.19214557394E+02  0.41049472571E+02  0.00000000000E+00 0. -1.
      -12    1    3    3    0    0  0.21045106348E+02 -0.29545955413E+02  0.59032306130E+02  0.69286890170E+02  0.00000000000E+00 0.  1.
</event>
<event>
 5   0  0.8936300E+00  0.7851740E+02  0.7957747E-01  0.1331600E+00
        1   -1    0    0  501    0  0.00000000000E+00  0.00000000000E+00  0.10446357266E+02  0.10446357266E+02  0.00000000000E+00 0. -1.
       -2   -1    0    0    0  501  0.00000000000E+00  0.00000000000E+00 -0.14753904690E+03  0.14753904690E+03  0.00000000000E+00 0.  1.
      -24    2    1    2    0    0  0.00000000000E+00  0.00000000000E+00 -0.13709268963E+03  0.15798540416E+03  0.78517401756E+02 0.  0.
       11    1    3    3    0    0 -0.22747455296E+02  0.14084739004E+02 -0.10738300609E+02  0.28829458809E+02  0.00000000000E+00 0. -1.
      -12    1    3    3    0    0  0.22747455296E+02 -0.14084739004E+02 -0.12635438902E+03  0.12915594535E+03  0.00000000000E+00 0.  1.
</event>
<event>
 5   0  0.8936300E+00  0.8070518E+02  0.7957747E-01  0.1325680E+00
        1   -1    0    0  501    0  0.00000000000E+00  0.00000000000E+00  0.48180107211E+02  0.48180107211E+02  0.00000000000E+00 0. -1.
       -2   -1    0    0    0  501  0.00000000000E+00  0.00000000000E+00 -0.33796761330E+02  0.33796761330E+02  0.00000000000E+00 0.  1.
      -24    2    1    2    0    0  0.00000000000E+00  0.00000000000E+00  0.14383345880E+02  0.81976868541E+02  0.80705181600E+02 0.  0.
       11    1    3    3    0    0  0.14019711009E+02  0.10569283114E+02  0.44096936466E+02  0.47463689785E+02  0.00000000000E+00 0. -1.
      -12    1    3    3    0    0 -0.14019711009E+02 -0.10569283114E+02 -0.29713590586E+02  0.34513178756E+02  0.00000000000E+00 0.  1.
</event>
<event>
 5   0  0.8936300E+00  0.7925468E+02  0.7957747E-01  0.1329581E+00
        1   -1    0    0  501    0  0.00000000000E+00  0.00000000000E+00  0.66814418814E+02  0.66814418814E+02  0.00000000000E+00 0. -1.
       -2   -1    0    0    0  501  0.00000000000E+00  0.00000000000E+00 -0.23502803185E+02  0.23502803185E+02  0.00000000000E+00 0.  1.
      -24    2    1    2    0    0  0.00000000000E+00  0.00000000000E+00  0.43311615629E+02  0.90317221999E+02  0.79254681510E+02 0.  0.
       11    1    3    3    0    0 -0.30056408188E+02  0.25807680791E+02  0.22738155552E+02  0.45677650759E+02  0.00000000000E+00 0. -1.
      -12    1    3    3    0    0  0.30056408188E+02 -0.25807680791E+02  0.20573460077E+02  0.44639571240E+02  0.00000000000E+00 0.  1.
</event>
<event>
 5   0  0.8936300E+00  0.8511914E+02  0.7957747E-01  0.1314359E+00
        1   -1    0    0  501    0  0.00000000000E+00  0.00000000000E+00  0.59082649982E+01  0.59082649982E+01  0.00000000000E+00 0. -1.
       -2   -1    0    0    0  501  0.00000000000E+00  0.00000000000E+00 -0.30657340111E+03  0.30657340111E+03  0.00000000000E+00 0.  1.
      -24    2    1    2    0    0  0.00000000000E+00  0.00000000000E+00 -0.30066513611E+03  0.31248166611E+03  0.85119137570E+02 0.  0.
       11    1    3    3    0    0  0.21063357430E+02 -0.29826322475E+02 -0.70066772200E+02  0.79010297462E+02  0.00000000000E+00 0. -1.
      -12    1    3    3    0    0 -0.21063357430E+02  0.29826322475E+02 -0.23059836391E+03  0.23347136865E+03  0.00000000000E+00 0.  1.
</event>
<event>
 5   0  0.8936300E+00  0.8449498E+02  0.7957747E-01  0.1315912E+00
        1   -1    0    0  501    0  0.00000000000E+00  0.00000000000E+00  0.73958032104E+01  0.73958032104E+01  0.00000000000E+00 0. -1.
       -2   -1    0    0    0  501  0.00000000000E+00  0.00000000000E+00 -0.24133285897E+03  0.24133285897E+03  0.00000000000E+00 0.  1.
      -24    2    1    2    0    0  0.00000000000E+00  0.00000000000E+00 -0.23393705576E+03  0.24872866218E+03  0.84494978151E+02 0.  0.
       11    1    3    3    0    0 -0.47379523790E+01 -0.40811616150E+02 -0.88004143366E+02  0.97122425088E+02  0.00000000000E+00 0. -1.
      -12    1    3    3    0    0  0.47379523790E+01  0.40811616150E+02 -0.14593291240E+03  0.15160623709E+03  0.00000000000E+00 0.  1.
</event>
<event>
 5   0  0.8936300E+00  0.8182068E+02  0.7957747E-01  0.1322743E+00
       -2   -1    0    0    0  501  0.00000000000E+00  0.00000000000E+00  0.94469178275E+01  0.94469178275E+01  0.00000000000E+00 0.  1.
        1   -1    0    0  501    0  0.00000000000E+00  0.00000000000E+00 -0.17716422735E+03  0.17716422735E+03  0.00000000000E+00 0. -1.
      -24    2    1    2    0    0  0.00000000000E+00  0.00000000000E+00 -0.16771730952E+03  0.18661114517E+03  0.81820679482E+02 0.  0.
       11    1    3    3    0    0  0.16499691191E+02  0.30656598708E+02 -0.13285935003E+03  0.13734508999E+03  0.00000000000E+00 0. -1.
      -12    1    3    3    0    0 -0.16499691191E+02 -0.30656598708E+02 -0.34857959489E+02  0.49266055185E+02  0.00000000000E+00 0.  1.
</event>
<event>
 5   0  0.8936300E+00  0.9124980E+02  0.7957747E-01  0.1299860E+00
        1   -1    0    0  501    0  0.00000000000E+00  0.00000000000E+00  0.41095712092E+02  0.41095712092E+02  0.00000000000E+00 0. -1.
       -2   -1    0    0    0  501  0.00000000000E+00  0.00000000000E+00 -0.50653247537E+02  0.50653247537E+02  0.00000000000E+00 0.  1.
      -24    2    1    2    0    0  0.00000000000E+00  0.00000000000E+00 -0.95575354456E+01  0.91748959629E+02  0.91249795119E+02 0.  0.
       11    1    3    3    0    0  0.16399526050E+02  0.48217946871E+01  0.37754374786E+02  0.41443780886E+02  0.00000000000E+00 0. -1.
      -12    1    3    3    0    0 -0.16399526050E+02 -0.48217946871E+01 -0.47311910231E+02  0.50305178743E+02  0.00000000000E+00 0.  1.
</event>
<event>
 5   0  0.8936300E+00  0.7966595E+02  0.7957747E-01  0.1328465E+00
        1   -1    0    0  501    0  0.00000000000E+00  0.00000000000E+00  0.72993880913E+01  0.72993880913E+01  0.00000000000E+00 0. -1.
       -2   -1    0    0    0  501  0.00000000000E+00  0.00000000000E+00 -0.21736973740E+03  0.21736973740E+03  0.00000000000E+00 0.  1.
      -24    2    1    2    0    0  0.00000000000E+00  0.00000000000E+00 -0.21007034931E+03  0.22466912549E+03  0.79665954400E+02 0.  0.
       11    1    3    3    0    0  0.71088312157E+00  0.18057604285E+02 -0.49268210620E+01  0.18731150341E+02  0.00000000000E+00 0. -1.
      -12    1    3    3    0    0 -0.71088312157E+00 -0.18057604285E+02 -0.20514352825E+03  0.20593797515E+03  0.00000000000E+00 0.  1.
</event>
<event>
 5   0  0.8936300E+00  0.8282658E+02  0.7957747E-01  0.1320140E+00
        1   -1    0    0  501    0  0.00000000000E+00  0.00000000000E+00  0.50291054157E+02  0.50291054157E+02  0.00000000000E+00 0. -1.
       -2   -1    0    0    0  501  0.00000000000E+00  0.00000000000E+00 -0.34102697291E+02  0.34102697291E+02  0.00000000000E+00 0.  1.
      -24    2    1    2    0    0  0.00000000000E+00  0.00000000000E+00  0.16188356866E+02  0.84393751448E+02  0.82826580187E+02 0.  0.
       11    1    3    3    0    0 -0.10531237240E+01  0.19769103800E+02  0.45157342073E+02  0.49306308701E+02  0.00000000000E+00 0. -1.
      -12    1    3    3    0    0  0.10531237240E+01 -0.19769103800E+02 -0.28968985207E+02  0.35087442747E+02  0.00000000000E+00 0.  1.
</event>
<event>
 5   0  0.8936300E+00  0.8141241E+02  0.7957747E-01  0.1323812E+00
        1   -1    0    0  501    0  0.00000000000E+00  0.00000000000E+00  0.22434546262E+03  0.22434546262E+03  0.00000000000E+00 0. -1.
       -2   -1    0    0    0  501  0.00000000000E+00  0.00000000000E+00 -0.73859095752E+01  0.73859095752E+01  0.00000000000E+00 0.  1.
      -24    2    1    2    0    0  0.00000000000E+00  0.00000000000E+00  0.21695955304E+03  0.23173137219E+03  0.81412414299E+02 0.  0.
       11    1    3    3    0    0 -0.20171740193E+02 -0.34304605447E+02  0.13284763034E+03  0.13868020026E+03  0.00000000000E+00 0. -1.
      -12    1    3    3    0    0  0.20171740193E+02  0.34304605447E+02  0.84111922701E+02  0.93051171931E+02  0.00000000000E+00 0.  1.
</event>
<event>
 5   0  0.8936300E+00  0.8023807E+02  0.7957747E-01  0.1326926E+00
        1   -1    0    0  501    0  0.00000000000E+00  0.00000000000E+00  0.45910060134E+02  0.45910060134E+02  0.00000000000E+00 0. -1.
       -2   -1    0    0    0  501  0.00000000000E+00  0.00000000000E+00 -0.35058482568E+02  0.35058482568E+02  0.00000000000E+00 0.  1.
      -24    2    1    2    0    0  0.00000000000E+00  0.00000000000E+00  0.10851577566E+02  0.80968542702E+02  0.80238071834E+02 0.  0.
       11    1    3    3    0    0  0.16190843173E+02 -0.78835556945E+01  0.41602450981E+02  0.45332745126E+02  0.00000000000E+00 0. -1.
      -12    1    3    3    0    0 -0.16190843173E+02  0.78835556945E+01 -0.30750873415E+02  0.35635797576E+02  0.00000000000E+00 0.  1.
</event>
<event>
 5   0  0.8936300E+00  0.7934205E+02  0.7957747E-01  0.1329343E+00
        1   -1    0    0  501    0  0.00000000000E+00  0.00000000000E+00  0.55532834923E+01  0.55532834923E+01  0.00000000000E+00 0. -1.
       -2   -1    0    0    0  501  0.00000000000E+00  0.00000000000E+00 -0.28339814690E+03  0.28339814690E+03  0.00000000000E+00 0.  1.
      -24    2    1    2    0    0  0.00000000000E+00  0.00000000000E+00 -0.27784486341E+03  0.28895143040E+03  0.79342050665E+02 0.  0.
       11    1    3    3    0    0 -0.28574869163E+02  0.45491741149E+01 -0.40083267273E+02  0.49435679910E+02  0.00000000000E+00 0. -1.
      -12    1    3    3    0    0  0.28574869163E+02 -0.45491741149E+01 -0.23776159614E+03  0.23951575049E+03  0.00000000000E+00 0.  1.
</event>
<event>
 5   0  0.8936300E+00  0.8239849E+02  0.7957747E-01  0.1321242E+00
        1   -1    0    0  501    0  0.00000000000E+00  0.00000000000E+00  0.76372438042E+02  0.76372438042E+02  0.00000000000E+00 0. -1.
       -2   -1    0    0    0  501  0.00000000000E+00  0.00000000000E+00 -0.22225004573E+02  0.22225004573E+02  0.00000000000E+00 0.  1.
      -24    2    1    2    0    0  0.00000000000E+00  0.00000000000E+00  0.54147433469E+02  0.98597442615E+02  0.82398489907E+02 0.  0.
       11    1    3    3    0    0 -0.15154556695E+01 -0.26863286938E+02  0.64407508938E+02  0.69801575904E+02  0.00000000000E+00 0. -1.
      -12    1    3    3    0    0  0.15154556695E+01  0.26863286938E+02 -0.10260075469E+02  0.28795866711E+02  0.00000000000E+00 0.  1.
</event>
<event>
 5   0  0.8936300E+00  0.8177230E+02  0.7957747E-01  0.1322869E+00
        1   -1    0    0  501    0  0.00000000000E+00  0.00000000000E+00  0.85698495712E+02  0.85698495712E+02  0.00000000000E+00 0. -1.
       -2   -1    0    0    0  501  0.00000000000E+00  0.00000000000E+00 -0.19506493410E+02  0.19506493410E+02  0.00000000000E+00 0.  1.
      -24    2    1    2    0    0  0.00000000000E+00  0.00000000000E+00  0.66192002302E+02  0.10520498912E+03  0.81772297065E+02 0.  0.
       11    1    3    3    0    0  0.21878913838E+02  0.10729622966E+02 -0.91428810047E+01  0.26026985089E+02  0.00000000000E+00 0. -1.
      -12    1    3    3    0    0 -0.21878913838E+02 -0.10729622966E+02  0.75334883307E+02  0.79178004033E+02  0.00000000000E+00 0.  1.
</event>
</LesHouchesEvents>
